v 0 eval {set sim_annotation {Simulacao: Canal Confiável - Sem ACKs}}
v 0.050000000000000003 eval {set sim_annotation {CBR (UDP) iniciando em 0.1s}}
+ 0.1 0 1 cbr 1000 ------- 1 0.0 1.0 0 0
- 0.1 0 1 cbr 1000 ------- 1 0.0 1.0 0 0
v 0.14999999999999999 eval {set sim_annotation {Emissor: Enviando dados continuamente}}
+ 0.18 0 1 cbr 1000 ------- 1 0.0 1.0 1 1
- 0.18 0 1 cbr 1000 ------- 1 0.0 1.0 1 1
+ 0.26 0 1 cbr 1000 ------- 1 0.0 1.0 2 2
- 0.26 0 1 cbr 1000 ------- 1 0.0 1.0 2 2
v 0.29999999999999999 eval {set sim_annotation {Receptor: Recebendo dados continuamente}}
r 0.34 0 1 cbr 1000 ------- 1 0.0 1.0 0 0
+ 0.34 0 1 cbr 1000 ------- 1 0.0 1.0 3 3
- 0.34 0 1 cbr 1000 ------- 1 0.0 1.0 3 3
r 0.42 0 1 cbr 1000 ------- 1 0.0 1.0 1 1
+ 0.42 0 1 cbr 1000 ------- 1 0.0 1.0 4 4
- 0.42 0 1 cbr 1000 ------- 1 0.0 1.0 4 4
r 0.5 0 1 cbr 1000 ------- 1 0.0 1.0 2 2
+ 0.5 0 1 cbr 1000 ------- 1 0.0 1.0 5 5
- 0.5 0 1 cbr 1000 ------- 1 0.0 1.0 5 5
+ 0.58 0 1 cbr 1000 ------- 1 0.0 1.0 6 6
- 0.58 0 1 cbr 1000 ------- 1 0.0 1.0 6 6
r 0.58 0 1 cbr 1000 ------- 1 0.0 1.0 3 3
+ 0.66 0 1 cbr 1000 ------- 1 0.0 1.0 7 7
- 0.66 0 1 cbr 1000 ------- 1 0.0 1.0 7 7
r 0.66 0 1 cbr 1000 ------- 1 0.0 1.0 4 4
+ 0.74 0 1 cbr 1000 ------- 1 0.0 1.0 8 8
- 0.74 0 1 cbr 1000 ------- 1 0.0 1.0 8 8
r 0.74 0 1 cbr 1000 ------- 1 0.0 1.0 5 5
+ 0.82 0 1 cbr 1000 ------- 1 0.0 1.0 9 9
- 0.82 0 1 cbr 1000 ------- 1 0.0 1.0 9 9
r 0.82 0 1 cbr 1000 ------- 1 0.0 1.0 6 6
+ 0.9 0 1 cbr 1000 ------- 1 0.0 1.0 10 10
- 0.9 0 1 cbr 1000 ------- 1 0.0 1.0 10 10
r 0.9 0 1 cbr 1000 ------- 1 0.0 1.0 7 7
+ 0.98 0 1 cbr 1000 ------- 1 0.0 1.0 11 11
- 0.98 0 1 cbr 1000 ------- 1 0.0 1.0 11 11
r 0.98 0 1 cbr 1000 ------- 1 0.0 1.0 8 8
r 1.06 0 1 cbr 1000 ------- 1 0.0 1.0 9 9
+ 1.06 0 1 cbr 1000 ------- 1 0.0 1.0 12 12
- 1.06 0 1 cbr 1000 ------- 1 0.0 1.0 12 12
r 1.14 0 1 cbr 1000 ------- 1 0.0 1.0 10 10
+ 1.14 0 1 cbr 1000 ------- 1 0.0 1.0 13 13
- 1.14 0 1 cbr 1000 ------- 1 0.0 1.0 13 13
r 1.22 0 1 cbr 1000 ------- 1 0.0 1.0 11 11
+ 1.22 0 1 cbr 1000 ------- 1 0.0 1.0 14 14
- 1.22 0 1 cbr 1000 ------- 1 0.0 1.0 14 14
r 1.3 0 1 cbr 1000 ------- 1 0.0 1.0 12 12
+ 1.3 0 1 cbr 1000 ------- 1 0.0 1.0 15 15
- 1.3 0 1 cbr 1000 ------- 1 0.0 1.0 15 15
r 1.38 0 1 cbr 1000 ------- 1 0.0 1.0 13 13
+ 1.38 0 1 cbr 1000 ------- 1 0.0 1.0 16 16
- 1.38 0 1 cbr 1000 ------- 1 0.0 1.0 16 16
r 1.46 0 1 cbr 1000 ------- 1 0.0 1.0 14 14
+ 1.46 0 1 cbr 1000 ------- 1 0.0 1.0 17 17
- 1.46 0 1 cbr 1000 ------- 1 0.0 1.0 17 17
r 1.54 0 1 cbr 1000 ------- 1 0.0 1.0 15 15
+ 1.54 0 1 cbr 1000 ------- 1 0.0 1.0 18 18
- 1.54 0 1 cbr 1000 ------- 1 0.0 1.0 18 18
r 1.62 0 1 cbr 1000 ------- 1 0.0 1.0 16 16
+ 1.62 0 1 cbr 1000 ------- 1 0.0 1.0 19 19
- 1.62 0 1 cbr 1000 ------- 1 0.0 1.0 19 19
r 1.7 0 1 cbr 1000 ------- 1 0.0 1.0 17 17
+ 1.7 0 1 cbr 1000 ------- 1 0.0 1.0 20 20
- 1.7 0 1 cbr 1000 ------- 1 0.0 1.0 20 20
r 1.78 0 1 cbr 1000 ------- 1 0.0 1.0 18 18
+ 1.78 0 1 cbr 1000 ------- 1 0.0 1.0 21 21
- 1.78 0 1 cbr 1000 ------- 1 0.0 1.0 21 21
r 1.86 0 1 cbr 1000 ------- 1 0.0 1.0 19 19
+ 1.86 0 1 cbr 1000 ------- 1 0.0 1.0 22 22
- 1.86 0 1 cbr 1000 ------- 1 0.0 1.0 22 22
r 1.94 0 1 cbr 1000 ------- 1 0.0 1.0 20 20
+ 1.94 0 1 cbr 1000 ------- 1 0.0 1.0 23 23
- 1.94 0 1 cbr 1000 ------- 1 0.0 1.0 23 23
r 2.02 0 1 cbr 1000 ------- 1 0.0 1.0 21 21
+ 2.02 0 1 cbr 1000 ------- 1 0.0 1.0 24 24
- 2.02 0 1 cbr 1000 ------- 1 0.0 1.0 24 24
r 2.1 0 1 cbr 1000 ------- 1 0.0 1.0 22 22
+ 2.1 0 1 cbr 1000 ------- 1 0.0 1.0 25 25
- 2.1 0 1 cbr 1000 ------- 1 0.0 1.0 25 25
r 2.18 0 1 cbr 1000 ------- 1 0.0 1.0 23 23
+ 2.18 0 1 cbr 1000 ------- 1 0.0 1.0 26 26
- 2.18 0 1 cbr 1000 ------- 1 0.0 1.0 26 26
r 2.26 0 1 cbr 1000 ------- 1 0.0 1.0 24 24
+ 2.26 0 1 cbr 1000 ------- 1 0.0 1.0 27 27
- 2.26 0 1 cbr 1000 ------- 1 0.0 1.0 27 27
r 2.34 0 1 cbr 1000 ------- 1 0.0 1.0 25 25
+ 2.34 0 1 cbr 1000 ------- 1 0.0 1.0 28 28
- 2.34 0 1 cbr 1000 ------- 1 0.0 1.0 28 28
r 2.42 0 1 cbr 1000 ------- 1 0.0 1.0 26 26
+ 2.42 0 1 cbr 1000 ------- 1 0.0 1.0 29 29
- 2.42 0 1 cbr 1000 ------- 1 0.0 1.0 29 29
r 2.5 0 1 cbr 1000 ------- 1 0.0 1.0 27 27
+ 2.5 0 1 cbr 1000 ------- 1 0.0 1.0 30 30
- 2.5 0 1 cbr 1000 ------- 1 0.0 1.0 30 30
r 2.58 0 1 cbr 1000 ------- 1 0.0 1.0 28 28
+ 2.58 0 1 cbr 1000 ------- 1 0.0 1.0 31 31
- 2.58 0 1 cbr 1000 ------- 1 0.0 1.0 31 31
r 2.66 0 1 cbr 1000 ------- 1 0.0 1.0 29 29
+ 2.66 0 1 cbr 1000 ------- 1 0.0 1.0 32 32
- 2.66 0 1 cbr 1000 ------- 1 0.0 1.0 32 32
r 2.74 0 1 cbr 1000 ------- 1 0.0 1.0 30 30
+ 2.74 0 1 cbr 1000 ------- 1 0.0 1.0 33 33
- 2.74 0 1 cbr 1000 ------- 1 0.0 1.0 33 33
r 2.82 0 1 cbr 1000 ------- 1 0.0 1.0 31 31
+ 2.82 0 1 cbr 1000 ------- 1 0.0 1.0 34 34
- 2.82 0 1 cbr 1000 ------- 1 0.0 1.0 34 34
r 2.9 0 1 cbr 1000 ------- 1 0.0 1.0 32 32
+ 2.9 0 1 cbr 1000 ------- 1 0.0 1.0 35 35
- 2.9 0 1 cbr 1000 ------- 1 0.0 1.0 35 35
r 2.98 0 1 cbr 1000 ------- 1 0.0 1.0 33 33
+ 2.98 0 1 cbr 1000 ------- 1 0.0 1.0 36 36
- 2.98 0 1 cbr 1000 ------- 1 0.0 1.0 36 36
r 3.06 0 1 cbr 1000 ------- 1 0.0 1.0 34 34
v 3.1000000000000001 eval {set sim_annotation {CBR (UDP) terminou}}
r 3.14 0 1 cbr 1000 ------- 1 0.0 1.0 35 35
r 3.22 0 1 cbr 1000 ------- 1 0.0 1.0 36 36
