v 0 eval {set sim_annotation {Simulacao: Canal COM Erros de Bit (UDP)}}
v 0.050000000000000003 eval {set sim_annotation {BER = 1e-5. Pacotes perdidos serao detectados!}}
d 0.1 1 0 cbr 1000 ------- 1 0.0 1.0 0 0
+ 0.108 1 0 cbr 1000 ------- 1 0.0 1.0 1 1
- 0.108 1 0 cbr 1000 ------- 1 0.0 1.0 1 1
+ 0.116 1 0 cbr 1000 ------- 1 0.0 1.0 2 2
- 0.124 1 0 cbr 1000 ------- 1 0.0 1.0 2 2
+ 0.124 1 0 cbr 1000 ------- 1 0.0 1.0 3 3
+ 0.132 1 0 cbr 1000 ------- 1 0.0 1.0 4 4
- 0.14 1 0 cbr 1000 ------- 1 0.0 1.0 3 3
+ 0.14 1 0 cbr 1000 ------- 1 0.0 1.0 5 5
+ 0.148 1 0 cbr 1000 ------- 1 0.0 1.0 6 6
v 0.14999999999999999 eval {set sim_annotation {Emissor: Enviando dados continuamente}}
- 0.156 1 0 cbr 1000 ------- 1 0.0 1.0 4 4
+ 0.156 1 0 cbr 1000 ------- 1 0.0 1.0 7 7
+ 0.164 1 0 cbr 1000 ------- 1 0.0 1.0 8 8
- 0.172 1 0 cbr 1000 ------- 1 0.0 1.0 5 5
+ 0.172 1 0 cbr 1000 ------- 1 0.0 1.0 9 9
+ 0.18 1 0 cbr 1000 ------- 1 0.0 1.0 10 10
- 0.188 1 0 cbr 1000 ------- 1 0.0 1.0 6 6
+ 0.188 1 0 cbr 1000 ------- 1 0.0 1.0 11 11
+ 0.196 1 0 cbr 1000 ------- 1 0.0 1.0 12 12
- 0.204 1 0 cbr 1000 ------- 1 0.0 1.0 7 7
+ 0.204 1 0 cbr 1000 ------- 1 0.0 1.0 13 13
+ 0.212 1 0 cbr 1000 ------- 1 0.0 1.0 14 14
- 0.22 1 0 cbr 1000 ------- 1 0.0 1.0 8 8
+ 0.22 1 0 cbr 1000 ------- 1 0.0 1.0 15 15
r 0.224 1 0 cbr 1000 ------- 1 0.0 1.0 1 1
+ 0.224 1 0 cbr 1000 ------- 1 0.0 1.0 1 1
+ 0.228 1 0 cbr 1000 ------- 1 0.0 1.0 16 16
- 0.236 1 0 cbr 1000 ------- 1 0.0 1.0 9 9
+ 0.236 1 0 cbr 1000 ------- 1 0.0 1.0 17 17
r 0.24 1 0 cbr 1000 ------- 1 0.0 1.0 2 2
+ 0.24 1 0 cbr 1000 ------- 1 0.0 1.0 2 2
+ 0.244 1 0 cbr 1000 ------- 1 0.0 1.0 18 18
- 0.252 1 0 cbr 1000 ------- 1 0.0 1.0 10 10
+ 0.252 1 0 cbr 1000 ------- 1 0.0 1.0 19 19
r 0.256 1 0 cbr 1000 ------- 1 0.0 1.0 3 3
+ 0.256 1 0 cbr 1000 ------- 1 0.0 1.0 3 3
+ 0.26 1 0 cbr 1000 ------- 1 0.0 1.0 20 20
- 0.268 1 0 cbr 1000 ------- 1 0.0 1.0 11 11
+ 0.268 1 0 cbr 1000 ------- 1 0.0 1.0 21 21
r 0.272 1 0 cbr 1000 ------- 1 0.0 1.0 4 4
+ 0.272 1 0 cbr 1000 ------- 1 0.0 1.0 4 4
+ 0.276 1 0 cbr 1000 ------- 1 0.0 1.0 22 22
- 0.284 1 0 cbr 1000 ------- 1 0.0 1.0 12 12
+ 0.284 1 0 cbr 1000 ------- 1 0.0 1.0 23 23
r 0.288 1 0 cbr 1000 ------- 1 0.0 1.0 5 5
+ 0.288 1 0 cbr 1000 ------- 1 0.0 1.0 5 5
+ 0.292 1 0 cbr 1000 ------- 1 0.0 1.0 24 24
v 0.29999999999999999 eval {set sim_annotation {Receptor: Recebendo dados (com perdas)}}
- 0.3 1 0 cbr 1000 ------- 1 0.0 1.0 13 13
+ 0.3 1 0 cbr 1000 ------- 1 0.0 1.0 25 25
r 0.304 1 0 cbr 1000 ------- 1 0.0 1.0 6 6
+ 0.304 1 0 cbr 1000 ------- 1 0.0 1.0 6 6
+ 0.308 1 0 cbr 1000 ------- 1 0.0 1.0 26 26
- 0.316 1 0 cbr 1000 ------- 1 0.0 1.0 14 14
+ 0.316 1 0 cbr 1000 ------- 1 0.0 1.0 27 27
r 0.32 1 0 cbr 1000 ------- 1 0.0 1.0 7 7
+ 0.32 1 0 cbr 1000 ------- 1 0.0 1.0 7 7
+ 0.324 1 0 cbr 1000 ------- 1 0.0 1.0 28 28
- 0.332 1 0 cbr 1000 ------- 1 0.0 1.0 15 15
+ 0.332 1 0 cbr 1000 ------- 1 0.0 1.0 29 29
r 0.336 1 0 cbr 1000 ------- 1 0.0 1.0 8 8
+ 0.336 1 0 cbr 1000 ------- 1 0.0 1.0 8 8
+ 0.34 1 0 cbr 1000 ------- 1 0.0 1.0 30 30
- 0.348 1 0 cbr 1000 ------- 1 0.0 1.0 1 1
+ 0.348 1 0 cbr 1000 ------- 1 0.0 1.0 31 31
r 0.352 1 0 cbr 1000 ------- 1 0.0 1.0 9 9
+ 0.352 1 0 cbr 1000 ------- 1 0.0 1.0 9 9
+ 0.356 1 0 cbr 1000 ------- 1 0.0 1.0 32 32
- 0.364 1 0 cbr 1000 ------- 1 0.0 1.0 16 16
+ 0.364 1 0 cbr 1000 ------- 1 0.0 1.0 33 33
r 0.368 1 0 cbr 1000 ------- 1 0.0 1.0 10 10
+ 0.368 1 0 cbr 1000 ------- 1 0.0 1.0 10 10
+ 0.372 1 0 cbr 1000 ------- 1 0.0 1.0 34 34
- 0.38 1 0 cbr 1000 ------- 1 0.0 1.0 17 17
+ 0.38 1 0 cbr 1000 ------- 1 0.0 1.0 35 35
r 0.384 1 0 cbr 1000 ------- 1 0.0 1.0 11 11
+ 0.384 1 0 cbr 1000 ------- 1 0.0 1.0 11 11
+ 0.388 1 0 cbr 1000 ------- 1 0.0 1.0 36 36
- 0.396 1 0 cbr 1000 ------- 1 0.0 1.0 2 2
+ 0.396 1 0 cbr 1000 ------- 1 0.0 1.0 37 37
r 0.4 1 0 cbr 1000 ------- 1 0.0 1.0 12 12
+ 0.4 1 0 cbr 1000 ------- 1 0.0 1.0 12 12
+ 0.404 1 0 cbr 1000 ------- 1 0.0 1.0 38 38
- 0.412 1 0 cbr 1000 ------- 1 0.0 1.0 18 18
+ 0.412 1 0 cbr 1000 ------- 1 0.0 1.0 39 39
r 0.416 1 0 cbr 1000 ------- 1 0.0 1.0 13 13
+ 0.416 1 0 cbr 1000 ------- 1 0.0 1.0 13 13
+ 0.42 1 0 cbr 1000 ------- 1 0.0 1.0 40 40
- 0.428 1 0 cbr 1000 ------- 1 0.0 1.0 19 19
+ 0.428 1 0 cbr 1000 ------- 1 0.0 1.0 41 41
r 0.432 1 0 cbr 1000 ------- 1 0.0 1.0 14 14
+ 0.432 1 0 cbr 1000 ------- 1 0.0 1.0 14 14
+ 0.436 1 0 cbr 1000 ------- 1 0.0 1.0 42 42
- 0.444 1 0 cbr 1000 ------- 1 0.0 1.0 3 3
+ 0.444 1 0 cbr 1000 ------- 1 0.0 1.0 43 43
r 0.448 1 0 cbr 1000 ------- 1 0.0 1.0 15 15
+ 0.448 1 0 cbr 1000 ------- 1 0.0 1.0 15 15
+ 0.452 1 0 cbr 1000 ------- 1 0.0 1.0 44 44
- 0.46 1 0 cbr 1000 ------- 1 0.0 1.0 20 20
+ 0.46 1 0 cbr 1000 ------- 1 0.0 1.0 45 45
r 0.464 1 0 cbr 1000 ------- 1 0.0 1.0 1 1
+ 0.464 1 0 cbr 1000 ------- 1 0.0 1.0 1 1
+ 0.468 1 0 cbr 1000 ------- 1 0.0 1.0 46 46
- 0.476 1 0 cbr 1000 ------- 1 0.0 1.0 21 21
+ 0.476 1 0 cbr 1000 ------- 1 0.0 1.0 47 47
r 0.48 1 0 cbr 1000 ------- 1 0.0 1.0 16 16
+ 0.48 1 0 cbr 1000 ------- 1 0.0 1.0 16 16
+ 0.484 1 0 cbr 1000 ------- 1 0.0 1.0 48 48
- 0.492 1 0 cbr 1000 ------- 1 0.0 1.0 4 4
+ 0.492 1 0 cbr 1000 ------- 1 0.0 1.0 49 49
r 0.496 1 0 cbr 1000 ------- 1 0.0 1.0 17 17
+ 0.496 1 0 cbr 1000 ------- 1 0.0 1.0 17 17
+ 0.5 1 0 cbr 1000 ------- 1 0.0 1.0 50 50
- 0.508 1 0 cbr 1000 ------- 1 0.0 1.0 22 22
+ 0.508 1 0 cbr 1000 ------- 1 0.0 1.0 51 51
r 0.512 1 0 cbr 1000 ------- 1 0.0 1.0 2 2
+ 0.512 1 0 cbr 1000 ------- 1 0.0 1.0 2 2
+ 0.516 1 0 cbr 1000 ------- 1 0.0 1.0 52 52
- 0.524 1 0 cbr 1000 ------- 1 0.0 1.0 23 23
+ 0.524 1 0 cbr 1000 ------- 1 0.0 1.0 53 53
r 0.528 1 0 cbr 1000 ------- 1 0.0 1.0 18 18
+ 0.528 1 0 cbr 1000 ------- 1 0.0 1.0 18 18
+ 0.532 1 0 cbr 1000 ------- 1 0.0 1.0 54 54
- 0.54 1 0 cbr 1000 ------- 1 0.0 1.0 5 5
+ 0.54 1 0 cbr 1000 ------- 1 0.0 1.0 55 55
r 0.544 1 0 cbr 1000 ------- 1 0.0 1.0 19 19
+ 0.544 1 0 cbr 1000 ------- 1 0.0 1.0 19 19
+ 0.548 1 0 cbr 1000 ------- 1 0.0 1.0 56 56
- 0.556 1 0 cbr 1000 ------- 1 0.0 1.0 24 24
+ 0.556 1 0 cbr 1000 ------- 1 0.0 1.0 57 57
r 0.56 1 0 cbr 1000 ------- 1 0.0 1.0 3 3
+ 0.56 1 0 cbr 1000 ------- 1 0.0 1.0 3 3
+ 0.564 1 0 cbr 1000 ------- 1 0.0 1.0 58 58
- 0.572 1 0 cbr 1000 ------- 1 0.0 1.0 25 25
+ 0.572 1 0 cbr 1000 ------- 1 0.0 1.0 59 59
r 0.576 1 0 cbr 1000 ------- 1 0.0 1.0 20 20
+ 0.576 1 0 cbr 1000 ------- 1 0.0 1.0 20 20
+ 0.58 1 0 cbr 1000 ------- 1 0.0 1.0 60 60
- 0.588 1 0 cbr 1000 ------- 1 0.0 1.0 6 6
+ 0.588 1 0 cbr 1000 ------- 1 0.0 1.0 61 61
r 0.592 1 0 cbr 1000 ------- 1 0.0 1.0 21 21
+ 0.592 1 0 cbr 1000 ------- 1 0.0 1.0 21 21
+ 0.596 1 0 cbr 1000 ------- 1 0.0 1.0 62 62
- 0.604 1 0 cbr 1000 ------- 1 0.0 1.0 26 26
+ 0.604 1 0 cbr 1000 ------- 1 0.0 1.0 63 63
r 0.608 1 0 cbr 1000 ------- 1 0.0 1.0 4 4
+ 0.608 1 0 cbr 1000 ------- 1 0.0 1.0 4 4
+ 0.612 1 0 cbr 1000 ------- 1 0.0 1.0 64 64
- 0.62 1 0 cbr 1000 ------- 1 0.0 1.0 27 27
d 0.62 1 0 cbr 1000 ------- 1 0.0 1.0 65 65
r 0.624 1 0 cbr 1000 ------- 1 0.0 1.0 22 22
+ 0.624 1 0 cbr 1000 ------- 1 0.0 1.0 22 22
+ 0.628 1 0 cbr 1000 ------- 1 0.0 1.0 66 66
- 0.636 1 0 cbr 1000 ------- 1 0.0 1.0 7 7
+ 0.636 1 0 cbr 1000 ------- 1 0.0 1.0 67 67
r 0.64 1 0 cbr 1000 ------- 1 0.0 1.0 23 23
+ 0.64 1 0 cbr 1000 ------- 1 0.0 1.0 23 23
+ 0.644 1 0 cbr 1000 ------- 1 0.0 1.0 68 68
- 0.652 1 0 cbr 1000 ------- 1 0.0 1.0 28 28
+ 0.652 1 0 cbr 1000 ------- 1 0.0 1.0 69 69
r 0.656 1 0 cbr 1000 ------- 1 0.0 1.0 5 5
+ 0.656 1 0 cbr 1000 ------- 1 0.0 1.0 5 5
d 0.66 1 0 cbr 1000 ------- 1 0.0 1.0 70 70
- 0.668 1 0 cbr 1000 ------- 1 0.0 1.0 29 29
+ 0.668 1 0 cbr 1000 ------- 1 0.0 1.0 71 71
r 0.672 1 0 cbr 1000 ------- 1 0.0 1.0 24 24
+ 0.672 1 0 cbr 1000 ------- 1 0.0 1.0 24 24
+ 0.676 1 0 cbr 1000 ------- 1 0.0 1.0 72 72
- 0.684 1 0 cbr 1000 ------- 1 0.0 1.0 8 8
+ 0.684 1 0 cbr 1000 ------- 1 0.0 1.0 73 73
r 0.688 1 0 cbr 1000 ------- 1 0.0 1.0 25 25
+ 0.688 1 0 cbr 1000 ------- 1 0.0 1.0 25 25
+ 0.692 1 0 cbr 1000 ------- 1 0.0 1.0 74 74
- 0.7 1 0 cbr 1000 ------- 1 0.0 1.0 30 30
+ 0.7 1 0 cbr 1000 ------- 1 0.0 1.0 75 75
r 0.704 1 0 cbr 1000 ------- 1 0.0 1.0 6 6
+ 0.704 1 0 cbr 1000 ------- 1 0.0 1.0 6 6
+ 0.708 1 0 cbr 1000 ------- 1 0.0 1.0 76 76
- 0.716 1 0 cbr 1000 ------- 1 0.0 1.0 31 31
+ 0.716 1 0 cbr 1000 ------- 1 0.0 1.0 77 77
r 0.72 1 0 cbr 1000 ------- 1 0.0 1.0 26 26
+ 0.72 1 0 cbr 1000 ------- 1 0.0 1.0 26 26
+ 0.724 1 0 cbr 1000 ------- 1 0.0 1.0 78 78
- 0.732 1 0 cbr 1000 ------- 1 0.0 1.0 9 9
+ 0.732 1 0 cbr 1000 ------- 1 0.0 1.0 79 79
r 0.736 1 0 cbr 1000 ------- 1 0.0 1.0 27 27
+ 0.736 1 0 cbr 1000 ------- 1 0.0 1.0 27 27
+ 0.74 1 0 cbr 1000 ------- 1 0.0 1.0 80 80
- 0.748 1 0 cbr 1000 ------- 1 0.0 1.0 32 32
+ 0.748 1 0 cbr 1000 ------- 1 0.0 1.0 81 81
r 0.752 1 0 cbr 1000 ------- 1 0.0 1.0 7 7
+ 0.752 1 0 cbr 1000 ------- 1 0.0 1.0 7 7
+ 0.756 1 0 cbr 1000 ------- 1 0.0 1.0 82 82
- 0.764 1 0 cbr 1000 ------- 1 0.0 1.0 33 33
+ 0.764 1 0 cbr 1000 ------- 1 0.0 1.0 83 83
r 0.768 1 0 cbr 1000 ------- 1 0.0 1.0 28 28
+ 0.768 1 0 cbr 1000 ------- 1 0.0 1.0 28 28
+ 0.772 1 0 cbr 1000 ------- 1 0.0 1.0 84 84
- 0.78 1 0 cbr 1000 ------- 1 0.0 1.0 10 10
+ 0.78 1 0 cbr 1000 ------- 1 0.0 1.0 85 85
r 0.784 1 0 cbr 1000 ------- 1 0.0 1.0 29 29
+ 0.784 1 0 cbr 1000 ------- 1 0.0 1.0 29 29
+ 0.788 1 0 cbr 1000 ------- 1 0.0 1.0 86 86
- 0.796 1 0 cbr 1000 ------- 1 0.0 1.0 34 34
+ 0.796 1 0 cbr 1000 ------- 1 0.0 1.0 87 87
r 0.8 1 0 cbr 1000 ------- 1 0.0 1.0 8 8
+ 0.8 1 0 cbr 1000 ------- 1 0.0 1.0 8 8
+ 0.804 1 0 cbr 1000 ------- 1 0.0 1.0 88 88
- 0.812 1 0 cbr 1000 ------- 1 0.0 1.0 35 35
+ 0.812 1 0 cbr 1000 ------- 1 0.0 1.0 89 89
r 0.816 1 0 cbr 1000 ------- 1 0.0 1.0 30 30
+ 0.816 1 0 cbr 1000 ------- 1 0.0 1.0 30 30
+ 0.82 1 0 cbr 1000 ------- 1 0.0 1.0 90 90
- 0.828 1 0 cbr 1000 ------- 1 0.0 1.0 11 11
+ 0.828 1 0 cbr 1000 ------- 1 0.0 1.0 91 91
r 0.832 1 0 cbr 1000 ------- 1 0.0 1.0 31 31
+ 0.832 1 0 cbr 1000 ------- 1 0.0 1.0 31 31
+ 0.836 1 0 cbr 1000 ------- 1 0.0 1.0 92 92
- 0.844 1 0 cbr 1000 ------- 1 0.0 1.0 36 36
+ 0.844 1 0 cbr 1000 ------- 1 0.0 1.0 93 93
r 0.848 1 0 cbr 1000 ------- 1 0.0 1.0 9 9
+ 0.848 1 0 cbr 1000 ------- 1 0.0 1.0 9 9
+ 0.852 1 0 cbr 1000 ------- 1 0.0 1.0 94 94
- 0.86 1 0 cbr 1000 ------- 1 0.0 1.0 37 37
+ 0.86 1 0 cbr 1000 ------- 1 0.0 1.0 95 95
r 0.864 1 0 cbr 1000 ------- 1 0.0 1.0 32 32
+ 0.864 1 0 cbr 1000 ------- 1 0.0 1.0 32 32
+ 0.868 1 0 cbr 1000 ------- 1 0.0 1.0 96 96
- 0.876 1 0 cbr 1000 ------- 1 0.0 1.0 12 12
+ 0.876 1 0 cbr 1000 ------- 1 0.0 1.0 97 97
r 0.88 1 0 cbr 1000 ------- 1 0.0 1.0 33 33
+ 0.88 1 0 cbr 1000 ------- 1 0.0 1.0 33 33
+ 0.884 1 0 cbr 1000 ------- 1 0.0 1.0 98 98
- 0.892 1 0 cbr 1000 ------- 1 0.0 1.0 38 38
+ 0.892 1 0 cbr 1000 ------- 1 0.0 1.0 99 99
r 0.896 1 0 cbr 1000 ------- 1 0.0 1.0 10 10
+ 0.896 1 0 cbr 1000 ------- 1 0.0 1.0 10 10
+ 0.9 1 0 cbr 1000 ------- 1 0.0 1.0 100 100
- 0.908 1 0 cbr 1000 ------- 1 0.0 1.0 39 39
+ 0.908 1 0 cbr 1000 ------- 1 0.0 1.0 101 101
r 0.912 1 0 cbr 1000 ------- 1 0.0 1.0 34 34
+ 0.912 1 0 cbr 1000 ------- 1 0.0 1.0 34 34
+ 0.916 1 0 cbr 1000 ------- 1 0.0 1.0 102 102
- 0.924 1 0 cbr 1000 ------- 1 0.0 1.0 13 13
+ 0.924 1 0 cbr 1000 ------- 1 0.0 1.0 103 103
r 0.928 1 0 cbr 1000 ------- 1 0.0 1.0 35 35
+ 0.928 1 0 cbr 1000 ------- 1 0.0 1.0 35 35
+ 0.932 1 0 cbr 1000 ------- 1 0.0 1.0 104 104
- 0.94 1 0 cbr 1000 ------- 1 0.0 1.0 40 40
+ 0.94 1 0 cbr 1000 ------- 1 0.0 1.0 105 105
r 0.944 1 0 cbr 1000 ------- 1 0.0 1.0 11 11
+ 0.944 1 0 cbr 1000 ------- 1 0.0 1.0 11 11
+ 0.948 1 0 cbr 1000 ------- 1 0.0 1.0 106 106
- 0.956 1 0 cbr 1000 ------- 1 0.0 1.0 41 41
+ 0.956 1 0 cbr 1000 ------- 1 0.0 1.0 107 107
r 0.96 1 0 cbr 1000 ------- 1 0.0 1.0 36 36
+ 0.96 1 0 cbr 1000 ------- 1 0.0 1.0 36 36
+ 0.964 1 0 cbr 1000 ------- 1 0.0 1.0 108 108
- 0.972 1 0 cbr 1000 ------- 1 0.0 1.0 14 14
+ 0.972 1 0 cbr 1000 ------- 1 0.0 1.0 109 109
r 0.976 1 0 cbr 1000 ------- 1 0.0 1.0 37 37
+ 0.976 1 0 cbr 1000 ------- 1 0.0 1.0 37 37
+ 0.98 1 0 cbr 1000 ------- 1 0.0 1.0 110 110
- 0.988 1 0 cbr 1000 ------- 1 0.0 1.0 42 42
+ 0.988 1 0 cbr 1000 ------- 1 0.0 1.0 111 111
r 0.992 1 0 cbr 1000 ------- 1 0.0 1.0 12 12
+ 0.992 1 0 cbr 1000 ------- 1 0.0 1.0 12 12
+ 0.996 1 0 cbr 1000 ------- 1 0.0 1.0 112 112
- 1.004 1 0 cbr 1000 ------- 1 0.0 1.0 43 43
+ 1.004 1 0 cbr 1000 ------- 1 0.0 1.0 113 113
r 1.008 1 0 cbr 1000 ------- 1 0.0 1.0 38 38
+ 1.008 1 0 cbr 1000 ------- 1 0.0 1.0 38 38
+ 1.012 1 0 cbr 1000 ------- 1 0.0 1.0 114 114
- 1.02 1 0 cbr 1000 ------- 1 0.0 1.0 15 15
+ 1.02 1 0 cbr 1000 ------- 1 0.0 1.0 115 115
r 1.024 1 0 cbr 1000 ------- 1 0.0 1.0 39 39
+ 1.024 1 0 cbr 1000 ------- 1 0.0 1.0 39 39
+ 1.028 1 0 cbr 1000 ------- 1 0.0 1.0 116 116
- 1.036 1 0 cbr 1000 ------- 1 0.0 1.0 44 44
+ 1.036 1 0 cbr 1000 ------- 1 0.0 1.0 117 117
r 1.04 1 0 cbr 1000 ------- 1 0.0 1.0 13 13
+ 1.04 1 0 cbr 1000 ------- 1 0.0 1.0 13 13
+ 1.044 1 0 cbr 1000 ------- 1 0.0 1.0 118 118
- 1.052 1 0 cbr 1000 ------- 1 0.0 1.0 45 45
+ 1.052 1 0 cbr 1000 ------- 1 0.0 1.0 119 119
r 1.056 1 0 cbr 1000 ------- 1 0.0 1.0 40 40
+ 1.056 1 0 cbr 1000 ------- 1 0.0 1.0 40 40
+ 1.06 1 0 cbr 1000 ------- 1 0.0 1.0 120 120
- 1.068 1 0 cbr 1000 ------- 1 0.0 1.0 1 1
+ 1.068 1 0 cbr 1000 ------- 1 0.0 1.0 121 121
r 1.072 1 0 cbr 1000 ------- 1 0.0 1.0 41 41
+ 1.072 1 0 cbr 1000 ------- 1 0.0 1.0 41 41
+ 1.076 1 0 cbr 1000 ------- 1 0.0 1.0 122 122
- 1.084 1 0 cbr 1000 ------- 1 0.0 1.0 46 46
+ 1.084 1 0 cbr 1000 ------- 1 0.0 1.0 123 123
r 1.088 1 0 cbr 1000 ------- 1 0.0 1.0 14 14
+ 1.088 1 0 cbr 1000 ------- 1 0.0 1.0 14 14
+ 1.092 1 0 cbr 1000 ------- 1 0.0 1.0 124 124
- 1.1 1 0 cbr 1000 ------- 1 0.0 1.0 47 47
+ 1.1 1 0 cbr 1000 ------- 1 0.0 1.0 125 125
r 1.104 1 0 cbr 1000 ------- 1 0.0 1.0 42 42
+ 1.104 1 0 cbr 1000 ------- 1 0.0 1.0 42 42
+ 1.108 1 0 cbr 1000 ------- 1 0.0 1.0 126 126
- 1.116 1 0 cbr 1000 ------- 1 0.0 1.0 16 16
+ 1.116 1 0 cbr 1000 ------- 1 0.0 1.0 127 127
r 1.12 1 0 cbr 1000 ------- 1 0.0 1.0 43 43
+ 1.12 1 0 cbr 1000 ------- 1 0.0 1.0 43 43
+ 1.124 1 0 cbr 1000 ------- 1 0.0 1.0 128 128
- 1.132 1 0 cbr 1000 ------- 1 0.0 1.0 48 48
+ 1.132 1 0 cbr 1000 ------- 1 0.0 1.0 129 129
r 1.136 1 0 cbr 1000 ------- 1 0.0 1.0 15 15
+ 1.136 1 0 cbr 1000 ------- 1 0.0 1.0 15 15
+ 1.14 1 0 cbr 1000 ------- 1 0.0 1.0 130 130
- 1.148 1 0 cbr 1000 ------- 1 0.0 1.0 49 49
+ 1.148 1 0 cbr 1000 ------- 1 0.0 1.0 131 131
r 1.152 1 0 cbr 1000 ------- 1 0.0 1.0 44 44
+ 1.152 1 0 cbr 1000 ------- 1 0.0 1.0 44 44
+ 1.156 1 0 cbr 1000 ------- 1 0.0 1.0 132 132
- 1.164 1 0 cbr 1000 ------- 1 0.0 1.0 17 17
d 1.164 1 0 cbr 1000 ------- 1 0.0 1.0 133 133
r 1.168 1 0 cbr 1000 ------- 1 0.0 1.0 45 45
+ 1.168 1 0 cbr 1000 ------- 1 0.0 1.0 45 45
+ 1.172 1 0 cbr 1000 ------- 1 0.0 1.0 134 134
- 1.18 1 0 cbr 1000 ------- 1 0.0 1.0 50 50
+ 1.18 1 0 cbr 1000 ------- 1 0.0 1.0 135 135
r 1.184 1 0 cbr 1000 ------- 1 0.0 1.0 1 1
+ 1.184 1 0 cbr 1000 ------- 1 0.0 1.0 1 1
+ 1.188 1 0 cbr 1000 ------- 1 0.0 1.0 136 136
- 1.196 1 0 cbr 1000 ------- 1 0.0 1.0 51 51
+ 1.196 1 0 cbr 1000 ------- 1 0.0 1.0 137 137
r 1.2 1 0 cbr 1000 ------- 1 0.0 1.0 46 46
+ 1.2 1 0 cbr 1000 ------- 1 0.0 1.0 46 46
+ 1.204 1 0 cbr 1000 ------- 1 0.0 1.0 138 138
- 1.212 1 0 cbr 1000 ------- 1 0.0 1.0 2 2
+ 1.212 1 0 cbr 1000 ------- 1 0.0 1.0 139 139
r 1.216 1 0 cbr 1000 ------- 1 0.0 1.0 47 47
+ 1.216 1 0 cbr 1000 ------- 1 0.0 1.0 47 47
+ 1.22 1 0 cbr 1000 ------- 1 0.0 1.0 140 140
- 1.228 1 0 cbr 1000 ------- 1 0.0 1.0 52 52
+ 1.228 1 0 cbr 1000 ------- 1 0.0 1.0 141 141
r 1.232 1 0 cbr 1000 ------- 1 0.0 1.0 16 16
d 1.232 1 0 cbr 1000 ------- 1 0.0 1.0 16 16
+ 1.236 1 0 cbr 1000 ------- 1 0.0 1.0 142 142
- 1.244 1 0 cbr 1000 ------- 1 0.0 1.0 53 53
+ 1.244 1 0 cbr 1000 ------- 1 0.0 1.0 143 143
r 1.248 1 0 cbr 1000 ------- 1 0.0 1.0 48 48
+ 1.248 1 0 cbr 1000 ------- 1 0.0 1.0 48 48
+ 1.252 1 0 cbr 1000 ------- 1 0.0 1.0 144 144
- 1.26 1 0 cbr 1000 ------- 1 0.0 1.0 18 18
+ 1.26 1 0 cbr 1000 ------- 1 0.0 1.0 145 145
r 1.264 1 0 cbr 1000 ------- 1 0.0 1.0 49 49
+ 1.264 1 0 cbr 1000 ------- 1 0.0 1.0 49 49
+ 1.268 1 0 cbr 1000 ------- 1 0.0 1.0 146 146
- 1.276 1 0 cbr 1000 ------- 1 0.0 1.0 54 54
+ 1.276 1 0 cbr 1000 ------- 1 0.0 1.0 147 147
r 1.28 1 0 cbr 1000 ------- 1 0.0 1.0 17 17
+ 1.28 1 0 cbr 1000 ------- 1 0.0 1.0 17 17
+ 1.284 1 0 cbr 1000 ------- 1 0.0 1.0 148 148
- 1.292 1 0 cbr 1000 ------- 1 0.0 1.0 55 55
+ 1.292 1 0 cbr 1000 ------- 1 0.0 1.0 149 149
r 1.296 1 0 cbr 1000 ------- 1 0.0 1.0 50 50
+ 1.296 1 0 cbr 1000 ------- 1 0.0 1.0 50 50
+ 1.3 1 0 cbr 1000 ------- 1 0.0 1.0 150 150
- 1.308 1 0 cbr 1000 ------- 1 0.0 1.0 19 19
+ 1.308 1 0 cbr 1000 ------- 1 0.0 1.0 151 151
r 1.312 1 0 cbr 1000 ------- 1 0.0 1.0 51 51
+ 1.312 1 0 cbr 1000 ------- 1 0.0 1.0 51 51
+ 1.316 1 0 cbr 1000 ------- 1 0.0 1.0 152 152
- 1.324 1 0 cbr 1000 ------- 1 0.0 1.0 56 56
+ 1.324 1 0 cbr 1000 ------- 1 0.0 1.0 153 153
r 1.328 1 0 cbr 1000 ------- 1 0.0 1.0 2 2
+ 1.328 1 0 cbr 1000 ------- 1 0.0 1.0 2 2
+ 1.332 1 0 cbr 1000 ------- 1 0.0 1.0 154 154
- 1.34 1 0 cbr 1000 ------- 1 0.0 1.0 57 57
+ 1.34 1 0 cbr 1000 ------- 1 0.0 1.0 155 155
r 1.344 1 0 cbr 1000 ------- 1 0.0 1.0 52 52
+ 1.344 1 0 cbr 1000 ------- 1 0.0 1.0 52 52
+ 1.348 1 0 cbr 1000 ------- 1 0.0 1.0 156 156
- 1.356 1 0 cbr 1000 ------- 1 0.0 1.0 3 3
+ 1.356 1 0 cbr 1000 ------- 1 0.0 1.0 157 157
r 1.36 1 0 cbr 1000 ------- 1 0.0 1.0 53 53
+ 1.36 1 0 cbr 1000 ------- 1 0.0 1.0 53 53
+ 1.364 1 0 cbr 1000 ------- 1 0.0 1.0 158 158
- 1.372 1 0 cbr 1000 ------- 1 0.0 1.0 58 58
+ 1.372 1 0 cbr 1000 ------- 1 0.0 1.0 159 159
r 1.376 1 0 cbr 1000 ------- 1 0.0 1.0 18 18
+ 1.376 1 0 cbr 1000 ------- 1 0.0 1.0 18 18
+ 1.38 1 0 cbr 1000 ------- 1 0.0 1.0 160 160
- 1.388 1 0 cbr 1000 ------- 1 0.0 1.0 59 59
+ 1.388 1 0 cbr 1000 ------- 1 0.0 1.0 161 161
r 1.392 1 0 cbr 1000 ------- 1 0.0 1.0 54 54
+ 1.392 1 0 cbr 1000 ------- 1 0.0 1.0 54 54
+ 1.396 1 0 cbr 1000 ------- 1 0.0 1.0 162 162
- 1.404 1 0 cbr 1000 ------- 1 0.0 1.0 20 20
+ 1.404 1 0 cbr 1000 ------- 1 0.0 1.0 163 163
r 1.408 1 0 cbr 1000 ------- 1 0.0 1.0 55 55
+ 1.408 1 0 cbr 1000 ------- 1 0.0 1.0 55 55
+ 1.412 1 0 cbr 1000 ------- 1 0.0 1.0 164 164
- 1.42 1 0 cbr 1000 ------- 1 0.0 1.0 60 60
+ 1.42 1 0 cbr 1000 ------- 1 0.0 1.0 165 165
r 1.424 1 0 cbr 1000 ------- 1 0.0 1.0 19 19
+ 1.424 1 0 cbr 1000 ------- 1 0.0 1.0 19 19
+ 1.428 1 0 cbr 1000 ------- 1 0.0 1.0 166 166
- 1.436 1 0 cbr 1000 ------- 1 0.0 1.0 61 61
+ 1.436 1 0 cbr 1000 ------- 1 0.0 1.0 167 167
r 1.44 1 0 cbr 1000 ------- 1 0.0 1.0 56 56
+ 1.44 1 0 cbr 1000 ------- 1 0.0 1.0 56 56
+ 1.444 1 0 cbr 1000 ------- 1 0.0 1.0 168 168
- 1.452 1 0 cbr 1000 ------- 1 0.0 1.0 21 21
+ 1.452 1 0 cbr 1000 ------- 1 0.0 1.0 169 169
r 1.456 1 0 cbr 1000 ------- 1 0.0 1.0 57 57
+ 1.456 1 0 cbr 1000 ------- 1 0.0 1.0 57 57
+ 1.46 1 0 cbr 1000 ------- 1 0.0 1.0 170 170
- 1.468 1 0 cbr 1000 ------- 1 0.0 1.0 62 62
+ 1.468 1 0 cbr 1000 ------- 1 0.0 1.0 171 171
r 1.472 1 0 cbr 1000 ------- 1 0.0 1.0 3 3
+ 1.472 1 0 cbr 1000 ------- 1 0.0 1.0 3 3
+ 1.476 1 0 cbr 1000 ------- 1 0.0 1.0 172 172
- 1.484 1 0 cbr 1000 ------- 1 0.0 1.0 63 63
+ 1.484 1 0 cbr 1000 ------- 1 0.0 1.0 173 173
r 1.488 1 0 cbr 1000 ------- 1 0.0 1.0 58 58
+ 1.488 1 0 cbr 1000 ------- 1 0.0 1.0 58 58
+ 1.492 1 0 cbr 1000 ------- 1 0.0 1.0 174 174
- 1.5 1 0 cbr 1000 ------- 1 0.0 1.0 4 4
+ 1.5 1 0 cbr 1000 ------- 1 0.0 1.0 175 175
r 1.504 1 0 cbr 1000 ------- 1 0.0 1.0 59 59
+ 1.504 1 0 cbr 1000 ------- 1 0.0 1.0 59 59
+ 1.508 1 0 cbr 1000 ------- 1 0.0 1.0 176 176
- 1.516 1 0 cbr 1000 ------- 1 0.0 1.0 64 64
+ 1.516 1 0 cbr 1000 ------- 1 0.0 1.0 177 177
r 1.52 1 0 cbr 1000 ------- 1 0.0 1.0 20 20
+ 1.52 1 0 cbr 1000 ------- 1 0.0 1.0 20 20
+ 1.524 1 0 cbr 1000 ------- 1 0.0 1.0 178 178
- 1.532 1 0 cbr 1000 ------- 1 0.0 1.0 22 22
+ 1.532 1 0 cbr 1000 ------- 1 0.0 1.0 179 179
r 1.536 1 0 cbr 1000 ------- 1 0.0 1.0 60 60
+ 1.536 1 0 cbr 1000 ------- 1 0.0 1.0 60 60
+ 1.54 1 0 cbr 1000 ------- 1 0.0 1.0 180 180
- 1.548 1 0 cbr 1000 ------- 1 0.0 1.0 66 66
+ 1.548 1 0 cbr 1000 ------- 1 0.0 1.0 181 181
r 1.552 1 0 cbr 1000 ------- 1 0.0 1.0 61 61
+ 1.552 1 0 cbr 1000 ------- 1 0.0 1.0 61 61
+ 1.556 1 0 cbr 1000 ------- 1 0.0 1.0 182 182
- 1.564 1 0 cbr 1000 ------- 1 0.0 1.0 67 67
+ 1.564 1 0 cbr 1000 ------- 1 0.0 1.0 183 183
r 1.568 1 0 cbr 1000 ------- 1 0.0 1.0 21 21
+ 1.568 1 0 cbr 1000 ------- 1 0.0 1.0 21 21
+ 1.572 1 0 cbr 1000 ------- 1 0.0 1.0 184 184
- 1.58 1 0 cbr 1000 ------- 1 0.0 1.0 23 23
+ 1.58 1 0 cbr 1000 ------- 1 0.0 1.0 185 185
r 1.584 1 0 cbr 1000 ------- 1 0.0 1.0 62 62
+ 1.584 1 0 cbr 1000 ------- 1 0.0 1.0 62 62
+ 1.588 1 0 cbr 1000 ------- 1 0.0 1.0 186 186
- 1.596 1 0 cbr 1000 ------- 1 0.0 1.0 68 68
+ 1.596 1 0 cbr 1000 ------- 1 0.0 1.0 187 187
r 1.6 1 0 cbr 1000 ------- 1 0.0 1.0 63 63
+ 1.6 1 0 cbr 1000 ------- 1 0.0 1.0 63 63
+ 1.604 1 0 cbr 1000 ------- 1 0.0 1.0 188 188
- 1.612 1 0 cbr 1000 ------- 1 0.0 1.0 69 69
+ 1.612 1 0 cbr 1000 ------- 1 0.0 1.0 189 189
r 1.616 1 0 cbr 1000 ------- 1 0.0 1.0 4 4
+ 1.616 1 0 cbr 1000 ------- 1 0.0 1.0 4 4
+ 1.62 1 0 cbr 1000 ------- 1 0.0 1.0 190 190
- 1.628 1 0 cbr 1000 ------- 1 0.0 1.0 5 5
+ 1.628 1 0 cbr 1000 ------- 1 0.0 1.0 191 191
r 1.632 1 0 cbr 1000 ------- 1 0.0 1.0 64 64
+ 1.632 1 0 cbr 1000 ------- 1 0.0 1.0 64 64
+ 1.636 1 0 cbr 1000 ------- 1 0.0 1.0 192 192
- 1.644 1 0 cbr 1000 ------- 1 0.0 1.0 71 71
+ 1.644 1 0 cbr 1000 ------- 1 0.0 1.0 193 193
r 1.648 1 0 cbr 1000 ------- 1 0.0 1.0 22 22
+ 1.648 1 0 cbr 1000 ------- 1 0.0 1.0 22 22
+ 1.652 1 0 cbr 1000 ------- 1 0.0 1.0 194 194
- 1.66 1 0 cbr 1000 ------- 1 0.0 1.0 24 24
+ 1.66 1 0 cbr 1000 ------- 1 0.0 1.0 195 195
r 1.664 1 0 cbr 1000 ------- 1 0.0 1.0 66 66
+ 1.664 1 0 cbr 1000 ------- 1 0.0 1.0 66 66
+ 1.668 1 0 cbr 1000 ------- 1 0.0 1.0 196 196
- 1.676 1 0 cbr 1000 ------- 1 0.0 1.0 72 72
+ 1.676 1 0 cbr 1000 ------- 1 0.0 1.0 197 197
r 1.68 1 0 cbr 1000 ------- 1 0.0 1.0 67 67
+ 1.68 1 0 cbr 1000 ------- 1 0.0 1.0 67 67
+ 1.684 1 0 cbr 1000 ------- 1 0.0 1.0 198 198
- 1.692 1 0 cbr 1000 ------- 1 0.0 1.0 73 73
+ 1.692 1 0 cbr 1000 ------- 1 0.0 1.0 199 199
r 1.696 1 0 cbr 1000 ------- 1 0.0 1.0 23 23
+ 1.696 1 0 cbr 1000 ------- 1 0.0 1.0 23 23
+ 1.7 1 0 cbr 1000 ------- 1 0.0 1.0 200 200
- 1.708 1 0 cbr 1000 ------- 1 0.0 1.0 25 25
+ 1.708 1 0 cbr 1000 ------- 1 0.0 1.0 201 201
r 1.712 1 0 cbr 1000 ------- 1 0.0 1.0 68 68
+ 1.712 1 0 cbr 1000 ------- 1 0.0 1.0 68 68
+ 1.716 1 0 cbr 1000 ------- 1 0.0 1.0 202 202
- 1.724 1 0 cbr 1000 ------- 1 0.0 1.0 74 74
+ 1.724 1 0 cbr 1000 ------- 1 0.0 1.0 203 203
r 1.728 1 0 cbr 1000 ------- 1 0.0 1.0 69 69
+ 1.728 1 0 cbr 1000 ------- 1 0.0 1.0 69 69
+ 1.732 1 0 cbr 1000 ------- 1 0.0 1.0 204 204
- 1.74 1 0 cbr 1000 ------- 1 0.0 1.0 75 75
+ 1.74 1 0 cbr 1000 ------- 1 0.0 1.0 205 205
r 1.744 1 0 cbr 1000 ------- 1 0.0 1.0 5 5
+ 1.744 1 0 cbr 1000 ------- 1 0.0 1.0 5 5
+ 1.748 1 0 cbr 1000 ------- 1 0.0 1.0 206 206
- 1.756 1 0 cbr 1000 ------- 1 0.0 1.0 6 6
+ 1.756 1 0 cbr 1000 ------- 1 0.0 1.0 207 207
r 1.76 1 0 cbr 1000 ------- 1 0.0 1.0 71 71
+ 1.76 1 0 cbr 1000 ------- 1 0.0 1.0 71 71
+ 1.764 1 0 cbr 1000 ------- 1 0.0 1.0 208 208
- 1.772 1 0 cbr 1000 ------- 1 0.0 1.0 76 76
+ 1.772 1 0 cbr 1000 ------- 1 0.0 1.0 209 209
r 1.776 1 0 cbr 1000 ------- 1 0.0 1.0 24 24
+ 1.776 1 0 cbr 1000 ------- 1 0.0 1.0 24 24
+ 1.78 1 0 cbr 1000 ------- 1 0.0 1.0 210 210
- 1.788 1 0 cbr 1000 ------- 1 0.0 1.0 77 77
+ 1.788 1 0 cbr 1000 ------- 1 0.0 1.0 211 211
r 1.792 1 0 cbr 1000 ------- 1 0.0 1.0 72 72
+ 1.792 1 0 cbr 1000 ------- 1 0.0 1.0 72 72
+ 1.796 1 0 cbr 1000 ------- 1 0.0 1.0 212 212
- 1.804 1 0 cbr 1000 ------- 1 0.0 1.0 26 26
+ 1.804 1 0 cbr 1000 ------- 1 0.0 1.0 213 213
r 1.808 1 0 cbr 1000 ------- 1 0.0 1.0 73 73
+ 1.808 1 0 cbr 1000 ------- 1 0.0 1.0 73 73
+ 1.812 1 0 cbr 1000 ------- 1 0.0 1.0 214 214
- 1.82 1 0 cbr 1000 ------- 1 0.0 1.0 78 78
+ 1.82 1 0 cbr 1000 ------- 1 0.0 1.0 215 215
r 1.824 1 0 cbr 1000 ------- 1 0.0 1.0 25 25
+ 1.824 1 0 cbr 1000 ------- 1 0.0 1.0 25 25
+ 1.828 1 0 cbr 1000 ------- 1 0.0 1.0 216 216
- 1.836 1 0 cbr 1000 ------- 1 0.0 1.0 79 79
+ 1.836 1 0 cbr 1000 ------- 1 0.0 1.0 217 217
r 1.84 1 0 cbr 1000 ------- 1 0.0 1.0 74 74
+ 1.84 1 0 cbr 1000 ------- 1 0.0 1.0 74 74
+ 1.844 1 0 cbr 1000 ------- 1 0.0 1.0 218 218
- 1.852 1 0 cbr 1000 ------- 1 0.0 1.0 27 27
+ 1.852 1 0 cbr 1000 ------- 1 0.0 1.0 219 219
r 1.856 1 0 cbr 1000 ------- 1 0.0 1.0 75 75
+ 1.856 1 0 cbr 1000 ------- 1 0.0 1.0 75 75
+ 1.86 1 0 cbr 1000 ------- 1 0.0 1.0 220 220
- 1.868 1 0 cbr 1000 ------- 1 0.0 1.0 80 80
+ 1.868 1 0 cbr 1000 ------- 1 0.0 1.0 221 221
r 1.872 1 0 cbr 1000 ------- 1 0.0 1.0 6 6
+ 1.872 1 0 cbr 1000 ------- 1 0.0 1.0 6 6
+ 1.876 1 0 cbr 1000 ------- 1 0.0 1.0 222 222
- 1.884 1 0 cbr 1000 ------- 1 0.0 1.0 81 81
+ 1.884 1 0 cbr 1000 ------- 1 0.0 1.0 223 223
r 1.888 1 0 cbr 1000 ------- 1 0.0 1.0 76 76
+ 1.888 1 0 cbr 1000 ------- 1 0.0 1.0 76 76
+ 1.892 1 0 cbr 1000 ------- 1 0.0 1.0 224 224
- 1.9 1 0 cbr 1000 ------- 1 0.0 1.0 7 7
+ 1.9 1 0 cbr 1000 ------- 1 0.0 1.0 225 225
r 1.904 1 0 cbr 1000 ------- 1 0.0 1.0 77 77
+ 1.904 1 0 cbr 1000 ------- 1 0.0 1.0 77 77
+ 1.908 1 0 cbr 1000 ------- 1 0.0 1.0 226 226
- 1.916 1 0 cbr 1000 ------- 1 0.0 1.0 82 82
+ 1.916 1 0 cbr 1000 ------- 1 0.0 1.0 227 227
r 1.92 1 0 cbr 1000 ------- 1 0.0 1.0 26 26
+ 1.92 1 0 cbr 1000 ------- 1 0.0 1.0 26 26
+ 1.924 1 0 cbr 1000 ------- 1 0.0 1.0 228 228
- 1.932 1 0 cbr 1000 ------- 1 0.0 1.0 83 83
+ 1.932 1 0 cbr 1000 ------- 1 0.0 1.0 229 229
r 1.936 1 0 cbr 1000 ------- 1 0.0 1.0 78 78
+ 1.936 1 0 cbr 1000 ------- 1 0.0 1.0 78 78
+ 1.94 1 0 cbr 1000 ------- 1 0.0 1.0 230 230
- 1.948 1 0 cbr 1000 ------- 1 0.0 1.0 28 28
+ 1.948 1 0 cbr 1000 ------- 1 0.0 1.0 231 231
r 1.952 1 0 cbr 1000 ------- 1 0.0 1.0 79 79
+ 1.952 1 0 cbr 1000 ------- 1 0.0 1.0 79 79
+ 1.956 1 0 cbr 1000 ------- 1 0.0 1.0 232 232
- 1.964 1 0 cbr 1000 ------- 1 0.0 1.0 84 84
+ 1.964 1 0 cbr 1000 ------- 1 0.0 1.0 233 233
r 1.968 1 0 cbr 1000 ------- 1 0.0 1.0 27 27
+ 1.968 1 0 cbr 1000 ------- 1 0.0 1.0 27 27
+ 1.972 1 0 cbr 1000 ------- 1 0.0 1.0 234 234
- 1.98 1 0 cbr 1000 ------- 1 0.0 1.0 85 85
+ 1.98 1 0 cbr 1000 ------- 1 0.0 1.0 235 235
r 1.984 1 0 cbr 1000 ------- 1 0.0 1.0 80 80
+ 1.984 1 0 cbr 1000 ------- 1 0.0 1.0 80 80
+ 1.988 1 0 cbr 1000 ------- 1 0.0 1.0 236 236
- 1.996 1 0 cbr 1000 ------- 1 0.0 1.0 29 29
+ 1.996 1 0 cbr 1000 ------- 1 0.0 1.0 237 237
r 2 1 0 cbr 1000 ------- 1 0.0 1.0 81 81
+ 2 1 0 cbr 1000 ------- 1 0.0 1.0 81 81
+ 2.004 1 0 cbr 1000 ------- 1 0.0 1.0 238 238
- 2.012 1 0 cbr 1000 ------- 1 0.0 1.0 86 86
+ 2.012 1 0 cbr 1000 ------- 1 0.0 1.0 239 239
r 2.016 1 0 cbr 1000 ------- 1 0.0 1.0 7 7
+ 2.016 1 0 cbr 1000 ------- 1 0.0 1.0 7 7
+ 2.02 1 0 cbr 1000 ------- 1 0.0 1.0 240 240
- 2.028 1 0 cbr 1000 ------- 1 0.0 1.0 87 87
+ 2.028 1 0 cbr 1000 ------- 1 0.0 1.0 241 241
r 2.032 1 0 cbr 1000 ------- 1 0.0 1.0 82 82
+ 2.032 1 0 cbr 1000 ------- 1 0.0 1.0 82 82
+ 2.036 1 0 cbr 1000 ------- 1 0.0 1.0 242 242
- 2.044 1 0 cbr 1000 ------- 1 0.0 1.0 8 8
+ 2.044 1 0 cbr 1000 ------- 1 0.0 1.0 243 243
r 2.048 1 0 cbr 1000 ------- 1 0.0 1.0 83 83
+ 2.048 1 0 cbr 1000 ------- 1 0.0 1.0 83 83
+ 2.052 1 0 cbr 1000 ------- 1 0.0 1.0 244 244
- 2.06 1 0 cbr 1000 ------- 1 0.0 1.0 88 88
+ 2.06 1 0 cbr 1000 ------- 1 0.0 1.0 245 245
r 2.064 1 0 cbr 1000 ------- 1 0.0 1.0 28 28
+ 2.064 1 0 cbr 1000 ------- 1 0.0 1.0 28 28
+ 2.068 1 0 cbr 1000 ------- 1 0.0 1.0 246 246
- 2.076 1 0 cbr 1000 ------- 1 0.0 1.0 89 89
+ 2.076 1 0 cbr 1000 ------- 1 0.0 1.0 247 247
r 2.08 1 0 cbr 1000 ------- 1 0.0 1.0 84 84
+ 2.08 1 0 cbr 1000 ------- 1 0.0 1.0 84 84
+ 2.084 1 0 cbr 1000 ------- 1 0.0 1.0 248 248
- 2.092 1 0 cbr 1000 ------- 1 0.0 1.0 30 30
+ 2.092 1 0 cbr 1000 ------- 1 0.0 1.0 249 249
r 2.096 1 0 cbr 1000 ------- 1 0.0 1.0 85 85
+ 2.096 1 0 cbr 1000 ------- 1 0.0 1.0 85 85
+ 2.1 1 0 cbr 1000 ------- 1 0.0 1.0 250 250
- 2.108 1 0 cbr 1000 ------- 1 0.0 1.0 90 90
+ 2.108 1 0 cbr 1000 ------- 1 0.0 1.0 251 251
r 2.112 1 0 cbr 1000 ------- 1 0.0 1.0 29 29
+ 2.112 1 0 cbr 1000 ------- 1 0.0 1.0 29 29
+ 2.116 1 0 cbr 1000 ------- 1 0.0 1.0 252 252
- 2.124 1 0 cbr 1000 ------- 1 0.0 1.0 91 91
+ 2.124 1 0 cbr 1000 ------- 1 0.0 1.0 253 253
r 2.128 1 0 cbr 1000 ------- 1 0.0 1.0 86 86
+ 2.128 1 0 cbr 1000 ------- 1 0.0 1.0 86 86
+ 2.132 1 0 cbr 1000 ------- 1 0.0 1.0 254 254
- 2.14 1 0 cbr 1000 ------- 1 0.0 1.0 31 31
+ 2.14 1 0 cbr 1000 ------- 1 0.0 1.0 255 255
r 2.144 1 0 cbr 1000 ------- 1 0.0 1.0 87 87
+ 2.144 1 0 cbr 1000 ------- 1 0.0 1.0 87 87
+ 2.148 1 0 cbr 1000 ------- 1 0.0 1.0 256 256
- 2.156 1 0 cbr 1000 ------- 1 0.0 1.0 92 92
+ 2.156 1 0 cbr 1000 ------- 1 0.0 1.0 257 257
r 2.16 1 0 cbr 1000 ------- 1 0.0 1.0 8 8
+ 2.16 1 0 cbr 1000 ------- 1 0.0 1.0 8 8
+ 2.164 1 0 cbr 1000 ------- 1 0.0 1.0 258 258
- 2.172 1 0 cbr 1000 ------- 1 0.0 1.0 93 93
+ 2.172 1 0 cbr 1000 ------- 1 0.0 1.0 259 259
r 2.176 1 0 cbr 1000 ------- 1 0.0 1.0 88 88
+ 2.176 1 0 cbr 1000 ------- 1 0.0 1.0 88 88
+ 2.18 1 0 cbr 1000 ------- 1 0.0 1.0 260 260
- 2.188 1 0 cbr 1000 ------- 1 0.0 1.0 9 9
+ 2.188 1 0 cbr 1000 ------- 1 0.0 1.0 261 261
r 2.192 1 0 cbr 1000 ------- 1 0.0 1.0 89 89
+ 2.192 1 0 cbr 1000 ------- 1 0.0 1.0 89 89
+ 2.196 1 0 cbr 1000 ------- 1 0.0 1.0 262 262
- 2.204 1 0 cbr 1000 ------- 1 0.0 1.0 94 94
+ 2.204 1 0 cbr 1000 ------- 1 0.0 1.0 263 263
r 2.208 1 0 cbr 1000 ------- 1 0.0 1.0 30 30
+ 2.208 1 0 cbr 1000 ------- 1 0.0 1.0 30 30
+ 2.212 1 0 cbr 1000 ------- 1 0.0 1.0 264 264
- 2.22 1 0 cbr 1000 ------- 1 0.0 1.0 95 95
+ 2.22 1 0 cbr 1000 ------- 1 0.0 1.0 265 265
r 2.224 1 0 cbr 1000 ------- 1 0.0 1.0 90 90
+ 2.224 1 0 cbr 1000 ------- 1 0.0 1.0 90 90
+ 2.228 1 0 cbr 1000 ------- 1 0.0 1.0 266 266
- 2.236 1 0 cbr 1000 ------- 1 0.0 1.0 32 32
+ 2.236 1 0 cbr 1000 ------- 1 0.0 1.0 267 267
r 2.24 1 0 cbr 1000 ------- 1 0.0 1.0 91 91
+ 2.24 1 0 cbr 1000 ------- 1 0.0 1.0 91 91
+ 2.244 1 0 cbr 1000 ------- 1 0.0 1.0 268 268
- 2.252 1 0 cbr 1000 ------- 1 0.0 1.0 96 96