V -t * -v 1.0a5 -a 0
A -t * -n 1 -p 0 -o 0x7fffffff -c 30 -a 1
A -t * -h 1 -m 1073741823 -s 0
c -t * -i 1 -n blue
n -t * -a 0 -s 0 -S UP -v circle -c black -i black
n -t * -a 1 -s 1 -S UP -v circle -c black -i black
l -t * -s 1 -d 0 -S UP -r 500000 -D 0.10000000000000001 -c black -o right
n -t 0 -s 1 -S DLABEL -l "Emissor" -L ""
n -t 0 -s 0 -S DLABEL -l "Receptor" -L ""
v -t 0 -e sim_annotation 0 1 Simulacao: Canal COM Erros de Bit (UDP)
v -t 0.05 -e sim_annotation 0.05 2 BER = 1e-5. Pacotes perdidos serao detectados!
d -t 0.1 -s 1 -d 0 -p cbr -e 1000 -c 1 -i 0 -a 1 -x {0.0 1.0 0 ------- null}
+ -t 0.108 -s 1 -d 0 -p cbr -e 1000 -c 1 -i 1 -a 1 -x {0.0 1.0 1 ------- null}
- -t 0.108 -s 1 -d 0 -p cbr -e 1000 -c 1 -i 1 -a 1 -x {0.0 1.0 1 ------- null}
h -t 0.108 -s 1 -d 0 -p cbr -e 1000 -c 1 -i 1 -a 1 -x {0.0 1.0 -1 ------- null}
+ -t 0.116 -s 1 -d 0 -p cbr -e 1000 -c 1 -i 2 -a 1 -x {0.0 1.0 2 ------- null}
- -t 0.124 -s 1 -d 0 -p cbr -e 1000 -c 1 -i 2 -a 1 -x {0.0 1.0 2 ------- null}
h -t 0.124 -s 1 -d 0 -p cbr -e 1000 -c 1 -i 2 -a 1 -x {0.0 1.0 -1 ------- null}
+ -t 0.124 -s 1 -d 0 -p cbr -e 1000 -c 1 -i 3 -a 1 -x {0.0 1.0 3 ------- null}
+ -t 0.132 -s 1 -d 0 -p cbr -e 1000 -c 1 -i 4 -a 1 -x {0.0 1.0 4 ------- null}
- -t 0.14 -s 1 -d 0 -p cbr -e 1000 -c 1 -i 3 -a 1 -x {0.0 1.0 3 ------- null}
h -t 0.14 -s 1 -d 0 -p cbr -e 1000 -c 1 -i 3 -a 1 -x {0.0 1.0 -1 ------- null}
+ -t 0.14 -s 1 -d 0 -p cbr -e 1000 -c 1 -i 5 -a 1 -x {0.0 1.0 5 ------- null}
+ -t 0.148 -s 1 -d 0 -p cbr -e 1000 -c 1 -i 6 -a 1 -x {0.0 1.0 6 ------- null}
v -t 0.15 -e sim_annotation 0.15 3 Emissor: Enviando dados continuamente
- -t 0.156 -s 1 -d 0 -p cbr -e 1000 -c 1 -i 4 -a 1 -x {0.0 1.0 4 ------- null}
h -t 0.156 -s 1 -d 0 -p cbr -e 1000 -c 1 -i 4 -a 1 -x {0.0 1.0 -1 ------- null}
+ -t 0.156 -s 1 -d 0 -p cbr -e 1000 -c 1 -i 7 -a 1 -x {0.0 1.0 7 ------- null}
+ -t 0.164 -s 1 -d 0 -p cbr -e 1000 -c 1 -i 8 -a 1 -x {0.0 1.0 8 ------- null}
- -t 0.172 -s 1 -d 0 -p cbr -e 1000 -c 1 -i 5 -a 1 -x {0.0 1.0 5 ------- null}
h -t 0.172 -s 1 -d 0 -p cbr -e 1000 -c 1 -i 5 -a 1 -x {0.0 1.0 -1 ------- null}
+ -t 0.172 -s 1 -d 0 -p cbr -e 1000 -c 1 -i 9 -a 1 -x {0.0 1.0 9 ------- null}
+ -t 0.18 -s 1 -d 0 -p cbr -e 1000 -c 1 -i 10 -a 1 -x {0.0 1.0 10 ------- null}
- -t 0.188 -s 1 -d 0 -p cbr -e 1000 -c 1 -i 6 -a 1 -x {0.0 1.0 6 ------- null}
h -t 0.188 -s 1 -d 0 -p cbr -e 1000 -c 1 -i 6 -a 1 -x {0.0 1.0 -1 ------- null}
+ -t 0.188 -s 1 -d 0 -p cbr -e 1000 -c 1 -i 11 -a 1 -x {0.0 1.0 11 ------- null}
+ -t 0.196 -s 1 -d 0 -p cbr -e 1000 -c 1 -i 12 -a 1 -x {0.0 1.0 12 ------- null}
- -t 0.204 -s 1 -d 0 -p cbr -e 1000 -c 1 -i 7 -a 1 -x {0.0 1.0 7 ------- null}
h -t 0.204 -s 1 -d 0 -p cbr -e 1000 -c 1 -i 7 -a 1 -x {0.0 1.0 -1 ------- null}
+ -t 0.204 -s 1 -d 0 -p cbr -e 1000 -c 1 -i 13 -a 1 -x {0.0 1.0 13 ------- null}
+ -t 0.212 -s 1 -d 0 -p cbr -e 1000 -c 1 -i 14 -a 1 -x {0.0 1.0 14 ------- null}
- -t 0.22 -s 1 -d 0 -p cbr -e 1000 -c 1 -i 8 -a 1 -x {0.0 1.0 8 ------- null}
h -t 0.22 -s 1 -d 0 -p cbr -e 1000 -c 1 -i 8 -a 1 -x {0.0 1.0 -1 ------- null}
+ -t 0.22 -s 1 -d 0 -p cbr -e 1000 -c 1 -i 15 -a 1 -x {0.0 1.0 15 ------- null}
r -t 0.224 -s 1 -d 0 -p cbr -e 1000 -c 1 -i 1 -a 1 -x {0.0 1.0 1 ------- null}
+ -t 0.224 -s 1 -d 0 -p cbr -e 1000 -c 1 -i 1 -a 1 -x {0.0 1.0 1 ------- null}
+ -t 0.228 -s 1 -d 0 -p cbr -e 1000 -c 1 -i 16 -a 1 -x {0.0 1.0 16 ------- null}
- -t 0.236 -s 1 -d 0 -p cbr -e 1000 -c 1 -i 9 -a 1 -x {0.0 1.0 9 ------- null}
h -t 0.236 -s 1 -d 0 -p cbr -e 1000 -c 1 -i 9 -a 1 -x {0.0 1.0 -1 ------- null}
+ -t 0.236 -s 1 -d 0 -p cbr -e 1000 -c 1 -i 17 -a 1 -x {0.0 1.0 17 ------- null}
r -t 0.24 -s 1 -d 0 -p cbr -e 1000 -c 1 -i 2 -a 1 -x {0.0 1.0 2 ------- null}
+ -t 0.24 -s 1 -d 0 -p cbr -e 1000 -c 1 -i 2 -a 1 -x {0.0 1.0 2 ------- null}
+ -t 0.244 -s 1 -d 0 -p cbr -e 1000 -c 1 -i 18 -a 1 -x {0.0 1.0 18 ------- null}
- -t 0.252 -s 1 -d 0 -p cbr -e 1000 -c 1 -i 10 -a 1 -x {0.0 1.0 10 ------- null}
h -t 0.252 -s 1 -d 0 -p cbr -e 1000 -c 1 -i 10 -a 1 -x {0.0 1.0 -1 ------- null}
+ -t 0.252 -s 1 -d 0 -p cbr -e 1000 -c 1 -i 19 -a 1 -x {0.0 1.0 19 ------- null}
r -t 0.256 -s 1 -d 0 -p cbr -e 1000 -c 1 -i 3 -a 1 -x {0.0 1.0 3 ------- null}
+ -t 0.256 -s 1 -d 0 -p cbr -e 1000 -c 1 -i 3 -a 1 -x {0.0 1.0 3 ------- null}
+ -t 0.26 -s 1 -d 0 -p cbr -e 1000 -c 1 -i 20 -a 1 -x {0.0 1.0 20 ------- null}
- -t 0.268 -s 1 -d 0 -p cbr -e 1000 -c 1 -i 11 -a 1 -x {0.0 1.0 11 ------- null}
h -t 0.268 -s 1 -d 0 -p cbr -e 1000 -c 1 -i 11 -a 1 -x {0.0 1.0 -1 ------- null}
+ -t 0.268 -s 1 -d 0 -p cbr -e 1000 -c 1 -i 21 -a 1 -x {0.0 1.0 21 ------- null}
r -t 0.272 -s 1 -d 0 -p cbr -e 1000 -c 1 -i 4 -a 1 -x {0.0 1.0 4 ------- null}
+ -t 0.272 -s 1 -d 0 -p cbr -e 1000 -c 1 -i 4 -a 1 -x {0.0 1.0 4 ------- null}
+ -t 0.276 -s 1 -d 0 -p cbr -e 1000 -c 1 -i 22 -a 1 -x {0.0 1.0 22 ------- null}
- -t 0.284 -s 1 -d 0 -p cbr -e 1000 -c 1 -i 12 -a 1 -x {0.0 1.0 12 ------- null}
h -t 0.284 -s 1 -d 0 -p cbr -e 1000 -c 1 -i 12 -a 1 -x {0.0 1.0 -1 ------- null}
+ -t 0.284 -s 1 -d 0 -p cbr -e 1000 -c 1 -i 23 -a 1 -x {0.0 1.0 23 ------- null}
r -t 0.288 -s 1 -d 0 -p cbr -e 1000 -c 1 -i 5 -a 1 -x {0.0 1.0 5 ------- null}
+ -t 0.288 -s 1 -d 0 -p cbr -e 1000 -c 1 -i 5 -a 1 -x {0.0 1.0 5 ------- null}
+ -t 0.292 -s 1 -d 0 -p cbr -e 1000 -c 1 -i 24 -a 1 -x {0.0 1.0 24 ------- null}
v -t 0.3 -e sim_annotation 0.3 4 Receptor: Recebendo dados (com perdas)
- -t 0.3 -s 1 -d 0 -p cbr -e 1000 -c 1 -i 13 -a 1 -x {0.0 1.0 13 ------- null}
h -t 0.3 -s 1 -d 0 -p cbr -e 1000 -c 1 -i 13 -a 1 -x {0.0 1.0 -1 ------- null}
+ -t 0.3 -s 1 -d 0 -p cbr -e 1000 -c 1 -i 25 -a 1 -x {0.0 1.0 25 ------- null}
r -t 0.304 -s 1 -d 0 -p cbr -e 1000 -c 1 -i 6 -a 1 -x {0.0 1.0 6 ------- null}
+ -t 0.304 -s 1 -d 0 -p cbr -e 1000 -c 1 -i 6 -a 1 -x {0.0 1.0 6 ------- null}
+ -t 0.308 -s 1 -d 0 -p cbr -e 1000 -c 1 -i 26 -a 1 -x {0.0 1.0 26 ------- null}
- -t 0.316 -s 1 -d 0 -p cbr -e 1000 -c 1 -i 14 -a 1 -x {0.0 1.0 14 ------- null}
h -t 0.316 -s 1 -d 0 -p cbr -e 1000 -c 1 -i 14 -a 1 -x {0.0 1.0 -1 ------- null}
+ -t 0.316 -s 1 -d 0 -p cbr -e 1000 -c 1 -i 27 -a 1 -x {0.0 1.0 27 ------- null}
r -t 0.32 -s 1 -d 0 -p cbr -e 1000 -c 1 -i 7 -a 1 -x {0.0 1.0 7 ------- null}
+ -t 0.32 -s 1 -d 0 -p cbr -e 1000 -c 1 -i 7 -a 1 -x {0.0 1.0 7 ------- null}
+ -t 0.324 -s 1 -d 0 -p cbr -e 1000 -c 1 -i 28 -a 1 -x {0.0 1.0 28 ------- null}
- -t 0.332 -s 1 -d 0 -p cbr -e 1000 -c 1 -i 15 -a 1 -x {0.0 1.0 15 ------- null}
h -t 0.332 -s 1 -d 0 -p cbr -e 1000 -c 1 -i 15 -a 1 -x {0.0 1.0 -1 ------- null}
+ -t 0.332 -s 1 -d 0 -p cbr -e 1000 -c 1 -i 29 -a 1 -x {0.0 1.0 29 ------- null}
r -t 0.336 -s 1 -d 0 -p cbr -e 1000 -c 1 -i 8 -a 1 -x {0.0 1.0 8 ------- null}
+ -t 0.336 -s 1 -d 0 -p cbr -e 1000 -c 1 -i 8 -a 1 -x {0.0 1.0 8 ------- null}
+ -t 0.34 -s 1 -d 0 -p cbr -e 1000 -c 1 -i 30 -a 1 -x {0.0 1.0 30 ------- null}
- -t 0.348 -s 1 -d 0 -p cbr -e 1000 -c 1 -i 1 -a 1 -x {0.0 1.0 1 ------- null}
h -t 0.348 -s 1 -d 0 -p cbr -e 1000 -c 1 -i 1 -a 1 -x {0.0 1.0 -1 ------- null}
+ -t 0.348 -s 1 -d 0 -p cbr -e 1000 -c 1 -i 31 -a 1 -x {0.0 1.0 31 ------- null}
r -t 0.352 -s 1 -d 0 -p cbr -e 1000 -c 1 -i 9 -a 1 -x {0.0 1.0 9 ------- null}
+ -t 0.352 -s 1 -d 0 -p cbr -e 1000 -c 1 -i 9 -a 1 -x {0.0 1.0 9 ------- null}
+ -t 0.356 -s 1 -d 0 -p cbr -e 1000 -c 1 -i 32 -a 1 -x {0.0 1.0 32 ------- null}
- -t 0.364 -s 1 -d 0 -p cbr -e 1000 -c 1 -i 16 -a 1 -x {0.0 1.0 16 ------- null}
h -t 0.364 -s 1 -d 0 -p cbr -e 1000 -c 1 -i 16 -a 1 -x {0.0 1.0 -1 ------- null}
+ -t 0.364 -s 1 -d 0 -p cbr -e 1000 -c 1 -i 33 -a 1 -x {0.0 1.0 33 ------- null}
r -t 0.368 -s 1 -d 0 -p cbr -e 1000 -c 1 -i 10 -a 1 -x {0.0 1.0 10 ------- null}
+ -t 0.368 -s 1 -d 0 -p cbr -e 1000 -c 1 -i 10 -a 1 -x {0.0 1.0 10 ------- null}
+ -t 0.372 -s 1 -d 0 -p cbr -e 1000 -c 1 -i 34 -a 1 -x {0.0 1.0 34 ------- null}
- -t 0.38 -s 1 -d 0 -p cbr -e 1000 -c 1 -i 17 -a 1 -x {0.0 1.0 17 ------- null}
h -t 0.38 -s 1 -d 0 -p cbr -e 1000 -c 1 -i 17 -a 1 -x {0.0 1.0 -1 ------- null}
+ -t 0.38 -s 1 -d 0 -p cbr -e 1000 -c 1 -i 35 -a 1 -x {0.0 1.0 35 ------- null}
r -t 0.384 -s 1 -d 0 -p cbr -e 1000 -c 1 -i 11 -a 1 -x {0.0 1.0 11 ------- null}
+ -t 0.384 -s 1 -d 0 -p cbr -e 1000 -c 1 -i 11 -a 1 -x {0.0 1.0 11 ------- null}
+ -t 0.388 -s 1 -d 0 -p cbr -e 1000 -c 1 -i 36 -a 1 -x {0.0 1.0 36 ------- null}
- -t 0.396 -s 1 -d 0 -p cbr -e 1000 -c 1 -i 2 -a 1 -x {0.0 1.0 2 ------- null}
h -t 0.396 -s 1 -d 0 -p cbr -e 1000 -c 1 -i 2 -a 1 -x {0.0 1.0 -1 ------- null}
+ -t 0.396 -s 1 -d 0 -p cbr -e 1000 -c 1 -i 37 -a 1 -x {0.0 1.0 37 ------- null}
r -t 0.4 -s 1 -d 0 -p cbr -e 1000 -c 1 -i 12 -a 1 -x {0.0 1.0 12 ------- null}
+ -t 0.4 -s 1 -d 0 -p cbr -e 1000 -c 1 -i 12 -a 1 -x {0.0 1.0 12 ------- null}
+ -t 0.404 -s 1 -d 0 -p cbr -e 1000 -c 1 -i 38 -a 1 -x {0.0 1.0 38 ------- null}
- -t 0.412 -s 1 -d 0 -p cbr -e 1000 -c 1 -i 18 -a 1 -x {0.0 1.0 18 ------- null}
h -t 0.412 -s 1 -d 0 -p cbr -e 1000 -c 1 -i 18 -a 1 -x {0.0 1.0 -1 ------- null}
+ -t 0.412 -s 1 -d 0 -p cbr -e 1000 -c 1 -i 39 -a 1 -x {0.0 1.0 39 ------- null}
r -t 0.416 -s 1 -d 0 -p cbr -e 1000 -c 1 -i 13 -a 1 -x {0.0 1.0 13 ------- null}
+ -t 0.416 -s 1 -d 0 -p cbr -e 1000 -c 1 -i 13 -a 1 -x {0.0 1.0 13 ------- null}
+ -t 0.42 -s 1 -d 0 -p cbr -e 1000 -c 1 -i 40 -a 1 -x {0.0 1.0 40 ------- null}
- -t 0.428 -s 1 -d 0 -p cbr -e 1000 -c 1 -i 19 -a 1 -x {0.0 1.0 19 ------- null}
h -t 0.428 -s 1 -d 0 -p cbr -e 1000 -c 1 -i 19 -a 1 -x {0.0 1.0 -1 ------- null}
+ -t 0.428 -s 1 -d 0 -p cbr -e 1000 -c 1 -i 41 -a 1 -x {0.0 1.0 41 ------- null}
r -t 0.432 -s 1 -d 0 -p cbr -e 1000 -c 1 -i 14 -a 1 -x {0.0 1.0 14 ------- null}
+ -t 0.432 -s 1 -d 0 -p cbr -e 1000 -c 1 -i 14 -a 1 -x {0.0 1.0 14 ------- null}
+ -t 0.436 -s 1 -d 0 -p cbr -e 1000 -c 1 -i 42 -a 1 -x {0.0 1.0 42 ------- null}
- -t 0.444 -s 1 -d 0 -p cbr -e 1000 -c 1 -i 3 -a 1 -x {0.0 1.0 3 ------- null}
h -t 0.444 -s 1 -d 0 -p cbr -e 1000 -c 1 -i 3 -a 1 -x {0.0 1.0 -1 ------- null}
+ -t 0.444 -s 1 -d 0 -p cbr -e 1000 -c 1 -i 43 -a 1 -x {0.0 1.0 43 ------- null}
r -t 0.448 -s 1 -d 0 -p cbr -e 1000 -c 1 -i 15 -a 1 -x {0.0 1.0 15 ------- null}
+ -t 0.448 -s 1 -d 0 -p cbr -e 1000 -c 1 -i 15 -a 1 -x {0.0 1.0 15 ------- null}
+ -t 0.452 -s 1 -d 0 -p cbr -e 1000 -c 1 -i 44 -a 1 -x {0.0 1.0 44 ------- null}
- -t 0.46 -s 1 -d 0 -p cbr -e 1000 -c 1 -i 20 -a 1 -x {0.0 1.0 20 ------- null}
h -t 0.46 -s 1 -d 0 -p cbr -e 1000 -c 1 -i 20 -a 1 -x {0.0 1.0 -1 ------- null}
+ -t 0.46 -s 1 -d 0 -p cbr -e 1000 -c 1 -i 45 -a 1 -x {0.0 1.0 45 ------- null}
r -t 0.464 -s 1 -d 0 -p cbr -e 1000 -c 1 -i 1 -a 1 -x {0.0 1.0 1 ------- null}
+ -t 0.464 -s 1 -d 0 -p cbr -e 1000 -c 1 -i 1 -a 1 -x {0.0 1.0 1 ------- null}
+ -t 0.468 -s 1 -d 0 -p cbr -e 1000 -c 1 -i 46 -a 1 -x {0.0 1.0 46 ------- null}
- -t 0.476 -s 1 -d 0 -p cbr -e 1000 -c 1 -i 21 -a 1 -x {0.0 1.0 21 ------- null}
h -t 0.476 -s 1 -d 0 -p cbr -e 1000 -c 1 -i 21 -a 1 -x {0.0 1.0 -1 ------- null}
+ -t 0.476 -s 1 -d 0 -p cbr -e 1000 -c 1 -i 47 -a 1 -x {0.0 1.0 47 ------- null}
r -t 0.48 -s 1 -d 0 -p cbr -e 1000 -c 1 -i 16 -a 1 -x {0.0 1.0 16 ------- null}
+ -t 0.48 -s 1 -d 0 -p cbr -e 1000 -c 1 -i 16 -a 1 -x {0.0 1.0 16 ------- null}
+ -t 0.484 -s 1 -d 0 -p cbr -e 1000 -c 1 -i 48 -a 1 -x {0.0 1.0 48 ------- null}
- -t 0.492 -s 1 -d 0 -p cbr -e 1000 -c 1 -i 4 -a 1 -x {0.0 1.0 4 ------- null}
h -t 0.492 -s 1 -d 0 -p cbr -e 1000 -c 1 -i 4 -a 1 -x {0.0 1.0 -1 ------- null}
+ -t 0.492 -s 1 -d 0 -p cbr -e 1000 -c 1 -i 49 -a 1 -x {0.0 1.0 49 ------- null}
r -t 0.496 -s 1 -d 0 -p cbr -e 1000 -c 1 -i 17 -a 1 -x {0.0 1.0 17 ------- null}
+ -t 0.496 -s 1 -d 0 -p cbr -e 1000 -c 1 -i 17 -a 1 -x {0.0 1.0 17 ------- null}
+ -t 0.5 -s 1 -d 0 -p cbr -e 1000 -c 1 -i 50 -a 1 -x {0.0 1.0 50 ------- null}
- -t 0.508 -s 1 -d 0 -p cbr -e 1000 -c 1 -i 22 -a 1 -x {0.0 1.0 22 ------- null}
h -t 0.508 -s 1 -d 0 -p cbr -e 1000 -c 1 -i 22 -a 1 -x {0.0 1.0 -1 ------- null}
+ -t 0.508 -s 1 -d 0 -p cbr -e 1000 -c 1 -i 51 -a 1 -x {0.0 1.0 51 ------- null}
r -t 0.512 -s 1 -d 0 -p cbr -e 1000 -c 1 -i 2 -a 1 -x {0.0 1.0 2 ------- null}
+ -t 0.512 -s 1 -d 0 -p cbr -e 1000 -c 1 -i 2 -a 1 -x {0.0 1.0 2 ------- null}
+ -t 0.516 -s 1 -d 0 -p cbr -e 1000 -c 1 -i 52 -a 1 -x {0.0 1.0 52 ------- null}
- -t 0.524 -s 1 -d 0 -p cbr -e 1000 -c 1 -i 23 -a 1 -x {0.0 1.0 23 ------- null}
h -t 0.524 -s 1 -d 0 -p cbr -e 1000 -c 1 -i 23 -a 1 -x {0.0 1.0 -1 ------- null}
+ -t 0.524 -s 1 -d 0 -p cbr -e 1000 -c 1 -i 53 -a 1 -x {0.0 1.0 53 ------- null}
r -t 0.528 -s 1 -d 0 -p cbr -e 1000 -c 1 -i 18 -a 1 -x {0.0 1.0 18 ------- null}
+ -t 0.528 -s 1 -d 0 -p cbr -e 1000 -c 1 -i 18 -a 1 -x {0.0 1.0 18 ------- null}
+ -t 0.532 -s 1 -d 0 -p cbr -e 1000 -c 1 -i 54 -a 1 -x {0.0 1.0 54 ------- null}
- -t 0.54 -s 1 -d 0 -p cbr -e 1000 -c 1 -i 5 -a 1 -x {0.0 1.0 5 ------- null}
h -t 0.54 -s 1 -d 0 -p cbr -e 1000 -c 1 -i 5 -a 1 -x {0.0 1.0 -1 ------- null}
+ -t 0.54 -s 1 -d 0 -p cbr -e 1000 -c 1 -i 55 -a 1 -x {0.0 1.0 55 ------- null}
r -t 0.544 -s 1 -d 0 -p cbr -e 1000 -c 1 -i 19 -a 1 -x {0.0 1.0 19 ------- null}
+ -t 0.544 -s 1 -d 0 -p cbr -e 1000 -c 1 -i 19 -a 1 -x {0.0 1.0 19 ------- null}
+ -t 0.548 -s 1 -d 0 -p cbr -e 1000 -c 1 -i 56 -a 1 -x {0.0 1.0 56 ------- null}
- -t 0.556 -s 1 -d 0 -p cbr -e 1000 -c 1 -i 24 -a 1 -x {0.0 1.0 24 ------- null}
h -t 0.556 -s 1 -d 0 -p cbr -e 1000 -c 1 -i 24 -a 1 -x {0.0 1.0 -1 ------- null}
+ -t 0.556 -s 1 -d 0 -p cbr -e 1000 -c 1 -i 57 -a 1 -x {0.0 1.0 57 ------- null}
r -t 0.56 -s 1 -d 0 -p cbr -e 1000 -c 1 -i 3 -a 1 -x {0.0 1.0 3 ------- null}
+ -t 0.56 -s 1 -d 0 -p cbr -e 1000 -c 1 -i 3 -a 1 -x {0.0 1.0 3 ------- null}
+ -t 0.564 -s 1 -d 0 -p cbr -e 1000 -c 1 -i 58 -a 1 -x {0.0 1.0 58 ------- null}
- -t 0.572 -s 1 -d 0 -p cbr -e 1000 -c 1 -i 25 -a 1 -x {0.0 1.0 25 ------- null}
h -t 0.572 -s 1 -d 0 -p cbr -e 1000 -c 1 -i 25 -a 1 -x {0.0 1.0 -1 ------- null}
+ -t 0.572 -s 1 -d 0 -p cbr -e 1000 -c 1 -i 59 -a 1 -x {0.0 1.0 59 ------- null}
r -t 0.576 -s 1 -d 0 -p cbr -e 1000 -c 1 -i 20 -a 1 -x {0.0 1.0 20 ------- null}
+ -t 0.576 -s 1 -d 0 -p cbr -e 1000 -c 1 -i 20 -a 1 -x {0.0 1.0 20 ------- null}
+ -t 0.58 -s 1 -d 0 -p cbr -e 1000 -c 1 -i 60 -a 1 -x {0.0 1.0 60 ------- null}
- -t 0.588 -s 1 -d 0 -p cbr -e 1000 -c 1 -i 6 -a 1 -x {0.0 1.0 6 ------- null}
h -t 0.588 -s 1 -d 0 -p cbr -e 1000 -c 1 -i 6 -a 1 -x {0.0 1.0 -1 ------- null}
+ -t 0.588 -s 1 -d 0 -p cbr -e 1000 -c 1 -i 61 -a 1 -x {0.0 1.0 61 ------- null}
r -t 0.592 -s 1 -d 0 -p cbr -e 1000 -c 1 -i 21 -a 1 -x {0.0 1.0 21 ------- null}
+ -t 0.592 -s 1 -d 0 -p cbr -e 1000 -c 1 -i 21 -a 1 -x {0.0 1.0 21 ------- null}
+ -t 0.596 -s 1 -d 0 -p cbr -e 1000 -c 1 -i 62 -a 1 -x {0.0 1.0 62 ------- null}
- -t 0.604 -s 1 -d 0 -p cbr -e 1000 -c 1 -i 26 -a 1 -x {0.0 1.0 26 ------- null}
h -t 0.604 -s 1 -d 0 -p cbr -e 1000 -c 1 -i 26 -a 1 -x {0.0 1.0 -1 ------- null}
+ -t 0.604 -s 1 -d 0 -p cbr -e 1000 -c 1 -i 63 -a 1 -x {0.0 1.0 63 ------- null}
r -t 0.608 -s 1 -d 0 -p cbr -e 1000 -c 1 -i 4 -a 1 -x {0.0 1.0 4 ------- null}
+ -t 0.608 -s 1 -d 0 -p cbr -e 1000 -c 1 -i 4 -a 1 -x {0.0 1.0 4 ------- null}
+ -t 0.612 -s 1 -d 0 -p cbr -e 1000 -c 1 -i 64 -a 1 -x {0.0 1.0 64 ------- null}
- -t 0.62 -s 1 -d 0 -p cbr -e 1000 -c 1 -i 27 -a 1 -x {0.0 1.0 27 ------- null}
h -t 0.62 -s 1 -d 0 -p cbr -e 1000 -c 1 -i 27 -a 1 -x {0.0 1.0 -1 ------- null}
d -t 0.62 -s 1 -d 0 -p cbr -e 1000 -c 1 -i 65 -a 1 -x {0.0 1.0 65 ------- null}
r -t 0.624 -s 1 -d 0 -p cbr -e 1000 -c 1 -i 22 -a 1 -x {0.0 1.0 22 ------- null}
+ -t 0.624 -s 1 -d 0 -p cbr -e 1000 -c 1 -i 22 -a 1 -x {0.0 1.0 22 ------- null}
+ -t 0.628 -s 1 -d 0 -p cbr -e 1000 -c 1 -i 66 -a 1 -x {0.0 1.0 66 ------- null}
- -t 0.636 -s 1 -d 0 -p cbr -e 1000 -c 1 -i 7 -a 1 -x {0.0 1.0 7 ------- null}
h -t 0.636 -s 1 -d 0 -p cbr -e 1000 -c 1 -i 7 -a 1 -x {0.0 1.0 -1 ------- null}
+ -t 0.636 -s 1 -d 0 -p cbr -e 1000 -c 1 -i 67 -a 1 -x {0.0 1.0 67 ------- null}
r -t 0.64 -s 1 -d 0 -p cbr -e 1000 -c 1 -i 23 -a 1 -x {0.0 1.0 23 ------- null}
+ -t 0.64 -s 1 -d 0 -p cbr -e 1000 -c 1 -i 23 -a 1 -x {0.0 1.0 23 ------- null}
+ -t 0.644 -s 1 -d 0 -p cbr -e 1000 -c 1 -i 68 -a 1 -x {0.0 1.0 68 ------- null}
- -t 0.652 -s 1 -d 0 -p cbr -e 1000 -c 1 -i 28 -a 1 -x {0.0 1.0 28 ------- null}
h -t 0.652 -s 1 -d 0 -p cbr -e 1000 -c 1 -i 28 -a 1 -x {0.0 1.0 -1 ------- null}
+ -t 0.652 -s 1 -d 0 -p cbr -e 1000 -c 1 -i 69 -a 1 -x {0.0 1.0 69 ------- null}
r -t 0.656 -s 1 -d 0 -p cbr -e 1000 -c 1 -i 5 -a 1 -x {0.0 1.0 5 ------- null}
+ -t 0.656 -s 1 -d 0 -p cbr -e 1000 -c 1 -i 5 -a 1 -x {0.0 1.0 5 ------- null}
d -t 0.66 -s 1 -d 0 -p cbr -e 1000 -c 1 -i 70 -a 1 -x {0.0 1.0 70 ------- null}
- -t 0.668 -s 1 -d 0 -p cbr -e 1000 -c 1 -i 29 -a 1 -x {0.0 1.0 29 ------- null}
h -t 0.668 -s 1 -d 0 -p cbr -e 1000 -c 1 -i 29 -a 1 -x {0.0 1.0 -1 ------- null}
+ -t 0.668 -s 1 -d 0 -p cbr -e 1000 -c 1 -i 71 -a 1 -x {0.0 1.0 71 ------- null}
r -t 0.672 -s 1 -d 0 -p cbr -e 1000 -c 1 -i 24 -a 1 -x {0.0 1.0 24 ------- null}
+ -t 0.672 -s 1 -d 0 -p cbr -e 1000 -c 1 -i 24 -a 1 -x {0.0 1.0 24 ------- null}
+ -t 0.676 -s 1 -d 0 -p cbr -e 1000 -c 1 -i 72 -a 1 -x {0.0 1.0 72 ------- null}
- -t 0.684 -s 1 -d 0 -p cbr -e 1000 -c 1 -i 8 -a 1 -x {0.0 1.0 8 ------- null}
h -t 0.684 -s 1 -d 0 -p cbr -e 1000 -c 1 -i 8 -a 1 -x {0.0 1.0 -1 ------- null}
+ -t 0.684 -s 1 -d 0 -p cbr -e 1000 -c 1 -i 73 -a 1 -x {0.0 1.0 73 ------- null}
r -t 0.688 -s 1 -d 0 -p cbr -e 1000 -c 1 -i 25 -a 1 -x {0.0 1.0 25 ------- null}
+ -t 0.688 -s 1 -d 0 -p cbr -e 1000 -c 1 -i 25 -a 1 -x {0.0 1.0 25 ------- null}
+ -t 0.692000000000001 -s 1 -d 0 -p cbr -e 1000 -c 1 -i 74 -a 1 -x {0.0 1.0 74 ------- null}
- -t 0.700000000000001 -s 1 -d 0 -p cbr -e 1000 -c 1 -i 30 -a 1 -x {0.0 1.0 30 ------- null}
h -t 0.700000000000001 -s 1 -d 0 -p cbr -e 1000 -c 1 -i 30 -a 1 -x {0.0 1.0 -1 ------- null}
+ -t 0.700000000000001 -s 1 -d 0 -p cbr -e 1000 -c 1 -i 75 -a 1 -x {0.0 1.0 75 ------- null}
r -t 0.704 -s 1 -d 0 -p cbr -e 1000 -c 1 -i 6 -a 1 -x {0.0 1.0 6 ------- null}
+ -t 0.704 -s 1 -d 0 -p cbr -e 1000 -c 1 -i 6 -a 1 -x {0.0 1.0 6 ------- null}
+ -t 0.708000000000001 -s 1 -d 0 -p cbr -e 1000 -c 1 -i 76 -a 1 -x {0.0 1.0 76 ------- null}
- -t 0.716000000000001 -s 1 -d 0 -p cbr -e 1000 -c 1 -i 31 -a 1 -x {0.0 1.0 31 ------- null}
h -t 0.716000000000001 -s 1 -d 0 -p cbr -e 1000 -c 1 -i 31 -a 1 -x {0.0 1.0 -1 ------- null}
+ -t 0.716000000000001 -s 1 -d 0 -p cbr -e 1000 -c 1 -i 77 -a 1 -x {0.0 1.0 77 ------- null}
r -t 0.72 -s 1 -d 0 -p cbr -e 1000 -c 1 -i 26 -a 1 -x {0.0 1.0 26 ------- null}
+ -t 0.72 -s 1 -d 0 -p cbr -e 1000 -c 1 -i 26 -a 1 -x {0.0 1.0 26 ------- null}
+ -t 0.724000000000001 -s 1 -d 0 -p cbr -e 1000 -c 1 -i 78 -a 1 -x {0.0 1.0 78 ------- null}
- -t 0.732000000000001 -s 1 -d 0 -p cbr -e 1000 -c 1 -i 9 -a 1 -x {0.0 1.0 9 ------- null}
h -t 0.732000000000001 -s 1 -d 0 -p cbr -e 1000 -c 1 -i 9 -a 1 -x {0.0 1.0 -1 ------- null}
+ -t 0.732000000000001 -s 1 -d 0 -p cbr -e 1000 -c 1 -i 79 -a 1 -x {0.0 1.0 79 ------- null}
r -t 0.736 -s 1 -d 0 -p cbr -e 1000 -c 1 -i 27 -a 1 -x {0.0 1.0 27 ------- null}
+ -t 0.736 -s 1 -d 0 -p cbr -e 1000 -c 1 -i 27 -a 1 -x {0.0 1.0 27 ------- null}
+ -t 0.740000000000001 -s 1 -d 0 -p cbr -e 1000 -c 1 -i 80 -a 1 -x {0.0 1.0 80 ------- null}
- -t 0.748000000000001 -s 1 -d 0 -p cbr -e 1000 -c 1 -i 32 -a 1 -x {0.0 1.0 32 ------- null}
h -t 0.748000000000001 -s 1 -d 0 -p cbr -e 1000 -c 1 -i 32 -a 1 -x {0.0 1.0 -1 ------- null}
+ -t 0.748000000000001 -s 1 -d 0 -p cbr -e 1000 -c 1 -i 81 -a 1 -x {0.0 1.0 81 ------- null}
r -t 0.752 -s 1 -d 0 -p cbr -e 1000 -c 1 -i 7 -a 1 -x {0.0 1.0 7 ------- null}
+ -t 0.752 -s 1 -d 0 -p cbr -e 1000 -c 1 -i 7 -a 1 -x {0.0 1.0 7 ------- null}
+ -t 0.756000000000001 -s 1 -d 0 -p cbr -e 1000 -c 1 -i 82 -a 1 -x {0.0 1.0 82 ------- null}
- -t 0.764000000000001 -s 1 -d 0 -p cbr -e 1000 -c 1 -i 33 -a 1 -x {0.0 1.0 33 ------- null}
h -t 0.764000000000001 -s 1 -d 0 -p cbr -e 1000 -c 1 -i 33 -a 1 -x {0.0 1.0 -1 ------- null}
+ -t 0.764000000000001 -s 1 -d 0 -p cbr -e 1000 -c 1 -i 83 -a 1 -x {0.0 1.0 83 ------- null}
r -t 0.768 -s 1 -d 0 -p cbr -e 1000 -c 1 -i 28 -a 1 -x {0.0 1.0 28 ------- null}
+ -t 0.768 -s 1 -d 0 -p cbr -e 1000 -c 1 -i 28 -a 1 -x {0.0 1.0 28 ------- null}
+ -t 0.772000000000001 -s 1 -d 0 -p cbr -e 1000 -c 1 -i 84 -a 1 -x {0.0 1.0 84 ------- null}
- -t 0.780000000000001 -s 1 -d 0 -p cbr -e 1000 -c 1 -i 10 -a 1 -x {0.0 1.0 10 ------- null}
h -t 0.780000000000001 -s 1 -d 0 -p cbr -e 1000 -c 1 -i 10 -a 1 -x {0.0 1.0 -1 ------- null}
+ -t 0.780000000000001 -s 1 -d 0 -p cbr -e 1000 -c 1 -i 85 -a 1 -x {0.0 1.0 85 ------- null}
r -t 0.784 -s 1 -d 0 -p cbr -e 1000 -c 1 -i 29 -a 1 -x {0.0 1.0 29 ------- null}
+ -t 0.784 -s 1 -d 0 -p cbr -e 1000 -c 1 -i 29 -a 1 -x {0.0 1.0 29 ------- null}
+ -t 0.788000000000001 -s 1 -d 0 -p cbr -e 1000 -c 1 -i 86 -a 1 -x {0.0 1.0 86 ------- null}
- -t 0.796000000000001 -s 1 -d 0 -p cbr -e 1000 -c 1 -i 34 -a 1 -x {0.0 1.0 34 ------- null}
h -t 0.796000000000001 -s 1 -d 0 -p cbr -e 1000 -c 1 -i 34 -a 1 -x {0.0 1.0 -1 ------- null}
+ -t 0.796000000000001 -s 1 -d 0 -p cbr -e 1000 -c 1 -i 87 -a 1 -x {0.0 1.0 87 ------- null}
r -t 0.8 -s 1 -d 0 -p cbr -e 1000 -c 1 -i 8 -a 1 -x {0.0 1.0 8 ------- null}
+ -t 0.8 -s 1 -d 0 -p cbr -e 1000 -c 1 -i 8 -a 1 -x {0.0 1.0 8 ------- null}
+ -t 0.804000000000001 -s 1 -d 0 -p cbr -e 1000 -c 1 -i 88 -a 1 -x {0.0 1.0 88 ------- null}
- -t 0.812000000000001 -s 1 -d 0 -p cbr -e 1000 -c 1 -i 35 -a 1 -x {0.0 1.0 35 ------- null}
h -t 0.812000000000001 -s 1 -d 0 -p cbr -e 1000 -c 1 -i 35 -a 1 -x {0.0 1.0 -1 ------- null}
+ -t 0.812000000000001 -s 1 -d 0 -p cbr -e 1000 -c 1 -i 89 -a 1 -x {0.0 1.0 89 ------- null}
r -t 0.816000000000001 -s 1 -d 0 -p cbr -e 1000 -c 1 -i 30 -a 1 -x {0.0 1.0 30 ------- null}
+ -t 0.816000000000001 -s 1 -d 0 -p cbr -e 1000 -c 1 -i 30 -a 1 -x {0.0 1.0 30 ------- null}
+ -t 0.820000000000001 -s 1 -d 0 -p cbr -e 1000 -c 1 -i 90 -a 1 -x {0.0 1.0 90 ------- null}
- -t 0.828000000000001 -s 1 -d 0 -p cbr -e 1000 -c 1 -i 11 -a 1 -x {0.0 1.0 11 ------- null}
h -t 0.828000000000001 -s 1 -d 0 -p cbr -e 1000 -c 1 -i 11 -a 1 -x {0.0 1.0 -1 ------- null}
+ -t 0.828000000000001 -s 1 -d 0 -p cbr -e 1000 -c 1 -i 91 -a 1 -x {0.0 1.0 91 ------- null}
r -t 0.832000000000001 -s 1 -d 0 -p cbr -e 1000 -c 1 -i 31 -a 1 -x {0.0 1.0 31 ------- null}
+ -t 0.832000000000001 -s 1 -d 0 -p cbr -e 1000 -c 1 -i 31 -a 1 -x {0.0 1.0 31 ------- null}
+ -t 0.836000000000001 -s 1 -d 0 -p cbr -e 1000 -c 1 -i 92 -a 1 -x {0.0 1.0 92 ------- null}
- -t 0.844000000000001 -s 1 -d 0 -p cbr -e 1000 -c 1 -i 36 -a 1 -x {0.0 1.0 36 ------- null}
h -t 0.844000000000001 -s 1 -d 0 -p cbr -e 1000 -c 1 -i 36 -a 1 -x {0.0 1.0 -1 ------- null}
+ -t 0.844000000000001 -s 1 -d 0 -p cbr -e 1000 -c 1 -i 93 -a 1 -x {0.0 1.0 93 ------- null}
r -t 0.848000000000001 -s 1 -d 0 -p cbr -e 1000 -c 1 -i 9 -a 1 -x {0.0 1.0 9 ------- null}
+ -t 0.848000000000001 -s 1 -d 0 -p cbr -e 1000 -c 1 -i 9 -a 1 -x {0.0 1.0 9 ------- null}
+ -t 0.852000000000001 -s 1 -d 0 -p cbr -e 1000 -c 1 -i 94 -a 1 -x {0.0 1.0 94 ------- null}
- -t 0.860000000000001 -s 1 -d 0 -p cbr -e 1000 -c 1 -i 37 -a 1 -x {0.0 1.0 37 ------- null}
h -t 0.860000000000001 -s 1 -d 0 -p cbr -e 1000 -c 1 -i 37 -a 1 -x {0.0 1.0 -1 ------- null}
+ -t 0.860000000000001 -s 1 -d 0 -p cbr -e 1000 -c 1 -i 95 -a 1 -x {0.0 1.0 95 ------- null}
r -t 0.864000000000001 -s 1 -d 0 -p cbr -e 1000 -c 1 -i 32 -a 1 -x {0.0 1.0 32 ------- null}
+ -t 0.864000000000001 -s 1 -d 0 -p cbr -e 1000 -c 1 -i 32 -a 1 -x {0.0 1.0 32 ------- null}
+ -t 0.868000000000001 -s 1 -d 0 -p cbr -e 1000 -c 1 -i 96 -a 1 -x {0.0 1.0 96 ------- null}
- -t 0.876000000000001 -s 1 -d 0 -p cbr -e 1000 -c 1 -i 12 -a 1 -x {0.0 1.0 12 ------- null}
h -t 0.876000000000001 -s 1 -d 0 -p cbr -e 1000 -c 1 -i 12 -a 1 -x {0.0 1.0 -1 ------- null}
+ -t 0.876000000000001 -s 1 -d 0 -p cbr -e 1000 -c 1 -i 97 -a 1 -x {0.0 1.0 97 ------- null}
r -t 0.880000000000001 -s 1 -d 0 -p cbr -e 1000 -c 1 -i 33 -a 1 -x {0.0 1.0 33 ------- null}
+ -t 0.880000000000001 -s 1 -d 0 -p cbr -e 1000 -c 1 -i 33 -a 1 -x {0.0 1.0 33 ------- null}
+ -t 0.884000000000001 -s 1 -d 0 -p cbr -e 1000 -c 1 -i 98 -a 1 -x {0.0 1.0 98 ------- null}
- -t 0.892000000000001 -s 1 -d 0 -p cbr -e 1000 -c 1 -i 38 -a 1 -x {0.0 1.0 38 ------- null}
h -t 0.892000000000001 -s 1 -d 0 -p cbr -e 1000 -c 1 -i 38 -a 1 -x {0.0 1.0 -1 ------- null}
+ -t 0.892000000000001 -s 1 -d 0 -p cbr -e 1000 -c 1 -i 99 -a 1 -x {0.0 1.0 99 ------- null}
r -t 0.896000000000001 -s 1 -d 0 -p cbr -e 1000 -c 1 -i 10 -a 1 -x {0.0 1.0 10 ------- null}
+ -t 0.896000000000001 -s 1 -d 0 -p cbr -e 1000 -c 1 -i 10 -a 1 -x {0.0 1.0 10 ------- null}
+ -t 0.900000000000001 -s 1 -d 0 -p cbr -e 1000 -c 1 -i 100 -a 1 -x {0.0 1.0 100 ------- null}
- -t 0.908000000000001 -s 1 -d 0 -p cbr -e 1000 -c 1 -i 39 -a 1 -x {0.0 1.0 39 ------- null}
h -t 0.908000000000001 -s 1 -d 0 -p cbr -e 1000 -c 1 -i 39 -a 1 -x {0.0 1.0 -1 ------- null}
+ -t 0.908000000000001 -s 1 -d 0 -p cbr -e 1000 -c 1 -i 101 -a 1 -x {0.0 1.0 101 ------- null}
r -t 0.912000000000001 -s 1 -d 0 -p cbr -e 1000 -c 1 -i 34 -a 1 -x {0.0 1.0 34 ------- null}
+ -t 0.912000000000001 -s 1 -d 0 -p cbr -e 1000 -c 1 -i 34 -a 1 -x {0.0 1.0 34 ------- null}
+ -t 0.916000000000001 -s 1 -d 0 -p cbr -e 1000 -c 1 -i 102 -a 1 -x {0.0 1.0 102 ------- null}
- -t 0.924000000000001 -s 1 -d 0 -p cbr -e 1000 -c 1 -i 13 -a 1 -x {0.0 1.0 13 ------- null}
h -t 0.924000000000001 -s 1 -d 0 -p cbr -e 1000 -c 1 -i 13 -a 1 -x {0.0 1.0 -1 ------- null}
+ -t 0.924000000000001 -s 1 -d 0 -p cbr -e 1000 -c 1 -i 103 -a 1 -x {0.0 1.0 103 ------- null}
r -t 0.928000000000001 -s 1 -d 0 -p cbr -e 1000 -c 1 -i 35 -a 1 -x {0.0 1.0 35 ------- null}
+ -t 0.928000000000001 -s 1 -d 0 -p cbr -e 1000 -c 1 -i 35 -a 1 -x {0.0 1.0 35 ------- null}
+ -t 0.932000000000001 -s 1 -d 0 -p cbr -e 1000 -c 1 -i 104 -a 1 -x {0.0 1.0 104 ------- null}
- -t 0.940000000000001 -s 1 -d 0 -p cbr -e 1000 -c 1 -i 40 -a 1 -x {0.0 1.0 40 ------- null}
h -t 0.940000000000001 -s 1 -d 0 -p cbr -e 1000 -c 1 -i 40 -a 1 -x {0.0 1.0 -1 ------- null}
+ -t 0.940000000000001 -s 1 -d 0 -p cbr -e 1000 -c 1 -i 105 -a 1 -x {0.0 1.0 105 ------- null}
r -t 0.944000000000001 -s 1 -d 0 -p cbr -e 1000 -c 1 -i 11 -a 1 -x {0.0 1.0 11 ------- null}
+ -t 0.944000000000001 -s 1 -d 0 -p cbr -e 1000 -c 1 -i 11 -a 1 -x {0.0 1.0 11 ------- null}
+ -t 0.948000000000001 -s 1 -d 0 -p cbr -e 1000 -c 1 -i 106 -a 1 -x {0.0 1.0 106 ------- null}
- -t 0.956000000000001 -s 1 -d 0 -p cbr -e 1000 -c 1 -i 41 -a 1 -x {0.0 1.0 41 ------- null}
h -t 0.956000000000001 -s 1 -d 0 -p cbr -e 1000 -c 1 -i 41 -a 1 -x {0.0 1.0 -1 ------- null}
+ -t 0.956000000000001 -s 1 -d 0 -p cbr -e 1000 -c 1 -i 107 -a 1 -x {0.0 1.0 107 ------- null}
r -t 0.960000000000001 -s 1 -d 0 -p cbr -e 1000 -c 1 -i 36 -a 1 -x {0.0 1.0 36 ------- null}
+ -t 0.960000000000001 -s 1 -d 0 -p cbr -e 1000 -c 1 -i 36 -a 1 -x {0.0 1.0 36 ------- null}
+ -t 0.964000000000001 -s 1 -d 0 -p cbr -e 1000 -c 1 -i 108 -a 1 -x {0.0 1.0 108 ------- null}
- -t 0.972000000000001 -s 1 -d 0 -p cbr -e 1000 -c 1 -i 14 -a 1 -x {0.0 1.0 14 ------- null}
h -t 0.972000000000001 -s 1 -d 0 -p cbr -e 1000 -c 1 -i 14 -a 1 -x {0.0 1.0 -1 ------- null}
+ -t 0.972000000000001 -s 1 -d 0 -p cbr -e 1000 -c 1 -i 109 -a 1 -x {0.0 1.0 109 ------- null}
r -t 0.976000000000001 -s 1 -d 0 -p cbr -e 1000 -c 1 -i 37 -a 1 -x {0.0 1.0 37 ------- null}
+ -t 0.976000000000001 -s 1 -d 0 -p cbr -e 1000 -c 1 -i 37 -a 1 -x {0.0 1.0 37 ------- null}
+ -t 0.980000000000001 -s 1 -d 0 -p cbr -e 1000 -c 1 -i 110 -a 1 -x {0.0 1.0 110 ------- null}
- -t 0.988000000000001 -s 1 -d 0 -p cbr -e 1000 -c 1 -i 42 -a 1 -x {0.0 1.0 42 ------- null}
h -t 0.988000000000001 -s 1 -d 0 -p cbr -e 1000 -c 1 -i 42 -a 1 -x {0.0 1.0 -1 ------- null}
+ -t 0.988000000000001 -s 1 -d 0 -p cbr -e 1000 -c 1 -i 111 -a 1 -x {0.0 1.0 111 ------- null}
r -t 0.992000000000001 -s 1 -d 0 -p cbr -e 1000 -c 1 -i 12 -a 1 -x {0.0 1.0 12 ------- null}
+ -t 0.992000000000001 -s 1 -d 0 -p cbr -e 1000 -c 1 -i 12 -a 1 -x {0.0 1.0 12 ------- null}
+ -t 0.996000000000001 -s 1 -d 0 -p cbr -e 1000 -c 1 -i 112 -a 1 -x {0.0 1.0 112 ------- null}
- -t 1.004 -s 1 -d 0 -p cbr -e 1000 -c 1 -i 43 -a 1 -x {0.0 1.0 43 ------- null}
h -t 1.004 -s 1 -d 0 -p cbr -e 1000 -c 1 -i 43 -a 1 -x {0.0 1.0 -1 ------- null}
+ -t 1.004 -s 1 -d 0 -p cbr -e 1000 -c 1 -i 113 -a 1 -x {0.0 1.0 113 ------- null}
r -t 1.008 -s 1 -d 0 -p cbr -e 1000 -c 1 -i 38 -a 1 -x {0.0 1.0 38 ------- null}
+ -t 1.008 -s 1 -d 0 -p cbr -e 1000 -c 1 -i 38 -a 1 -x {0.0 1.0 38 ------- null}
+ -t 1.012 -s 1 -d 0 -p cbr -e 1000 -c 1 -i 114 -a 1 -x {0.0 1.0 114 ------- null}
- -t 1.02 -s 1 -d 0 -p cbr -e 1000 -c 1 -i 15 -a 1 -x {0.0 1.0 15 ------- null}
h -t 1.02 -s 1 -d 0 -p cbr -e 1000 -c 1 -i 15 -a 1 -x {0.0 1.0 -1 ------- null}
+ -t 1.02 -s 1 -d 0 -p cbr -e 1000 -c 1 -i 115 -a 1 -x {0.0 1.0 115 ------- null}
r -t 1.024 -s 1 -d 0 -p cbr -e 1000 -c 1 -i 39 -a 1 -x {0.0 1.0 39 ------- null}
+ -t 1.024 -s 1 -d 0 -p cbr -e 1000 -c 1 -i 39 -a 1 -x {0.0 1.0 39 ------- null}
+ -t 1.028 -s 1 -d 0 -p cbr -e 1000 -c 1 -i 116 -a 1 -x {0.0 1.0 116 ------- null}
- -t 1.036 -s 1 -d 0 -p cbr -e 1000 -c 1 -i 44 -a 1 -x {0.0 1.0 44 ------- null}
h -t 1.036 -s 1 -d 0 -p cbr -e 1000 -c 1 -i 44 -a 1 -x {0.0 1.0 -1 ------- null}
+ -t 1.036 -s 1 -d 0 -p cbr -e 1000 -c 1 -i 117 -a 1 -x {0.0 1.0 117 ------- null}
r -t 1.04 -s 1 -d 0 -p cbr -e 1000 -c 1 -i 13 -a 1 -x {0.0 1.0 13 ------- null}
+ -t 1.04 -s 1 -d 0 -p cbr -e 1000 -c 1 -i 13 -a 1 -x {0.0 1.0 13 ------- null}
+ -t 1.044 -s 1 -d 0 -p cbr -e 1000 -c 1 -i 118 -a 1 -x {0.0 1.0 118 ------- null}
- -t 1.052 -s 1 -d 0 -p cbr -e 1000 -c 1 -i 45 -a 1 -x {0.0 1.0 45 ------- null}
h -t 1.052 -s 1 -d 0 -p cbr -e 1000 -c 1 -i 45 -a 1 -x {0.0 1.0 -1 ------- null}
+ -t 1.052 -s 1 -d 0 -p cbr -e 1000 -c 1 -i 119 -a 1 -x {0.0 1.0 119 ------- null}
r -t 1.056 -s 1 -d 0 -p cbr -e 1000 -c 1 -i 40 -a 1 -x {0.0 1.0 40 ------- null}
+ -t 1.056 -s 1 -d 0 -p cbr -e 1000 -c 1 -i 40 -a 1 -x {0.0 1.0 40 ------- null}
+ -t 1.06 -s 1 -d 0 -p cbr -e 1000 -c 1 -i 120 -a 1 -x {0.0 1.0 120 ------- null}
- -t 1.068 -s 1 -d 0 -p cbr -e 1000 -c 1 -i 1 -a 1 -x {0.0 1.0 1 ------- null}
h -t 1.068 -s 1 -d 0 -p cbr -e 1000 -c 1 -i 1 -a 1 -x {0.0 1.0 -1 ------- null}