v 0 eval {set sim_annotation {Stop and Wait com perda de pacotes (devido a congestionamento)}}
v 0.050000000000000003 eval {set sim_annotation {FTP e CBR iniciam em 0.1}}
+ 0.1 0 2 tcp 40 ------- 2 0.0 4.0 0 0
- 0.1 0 2 tcp 40 ------- 2 0.0 4.0 0 0
+ 0.1 1 2 cbr 210 ------- 1 1.0 5.0 0 1
- 0.1 1 2 cbr 210 ------- 1 1.0 5.0 0 1
+ 0.10375 1 2 cbr 210 ------- 1 1.0 5.0 1 2
- 0.10375 1 2 cbr 210 ------- 1 1.0 5.0 1 2
+ 0.1075 1 2 cbr 210 ------- 1 1.0 5.0 2 3
- 0.1075 1 2 cbr 210 ------- 1 1.0 5.0 2 3
v 0.11 eval {set sim_annotation {Enviando pacote_0 (FTP)}}
+ 0.11125 1 2 cbr 210 ------- 1 1.0 5.0 3 4
- 0.11125 1 2 cbr 210 ------- 1 1.0 5.0 3 4
+ 0.115 1 2 cbr 210 ------- 1 1.0 5.0 4 5
- 0.115 1 2 cbr 210 ------- 1 1.0 5.0 4 5
+ 0.11875 1 2 cbr 210 ------- 1 1.0 5.0 5 6
- 0.11875 1 2 cbr 210 ------- 1 1.0 5.0 5 6
+ 0.1225 1 2 cbr 210 ------- 1 1.0 5.0 6 7
- 0.1225 1 2 cbr 210 ------- 1 1.0 5.0 6 7
+ 0.12625 1 2 cbr 210 ------- 1 1.0 5.0 7 8
- 0.12625 1 2 cbr 210 ------- 1 1.0 5.0 7 8
+ 0.13 1 2 cbr 210 ------- 1 1.0 5.0 8 9
- 0.13 1 2 cbr 210 ------- 1 1.0 5.0 8 9
+ 0.13375 1 2 cbr 210 ------- 1 1.0 5.0 9 10
- 0.13375 1 2 cbr 210 ------- 1 1.0 5.0 9 10
+ 0.1375 1 2 cbr 210 ------- 1 1.0 5.0 10 11
- 0.1375 1 2 cbr 210 ------- 1 1.0 5.0 10 11
+ 0.14125 1 2 cbr 210 ------- 1 1.0 5.0 11 12
- 0.14125 1 2 cbr 210 ------- 1 1.0 5.0 11 12
+ 0.145 1 2 cbr 210 ------- 1 1.0 5.0 12 13
- 0.145 1 2 cbr 210 ------- 1 1.0 5.0 12 13
+ 0.14875 1 2 cbr 210 ------- 1 1.0 5.0 13 14
- 0.14875 1 2 cbr 210 ------- 1 1.0 5.0 13 14
r 0.15064 0 2 tcp 40 ------- 2 0.0 4.0 0 0
+ 0.15064 2 3 tcp 40 ------- 2 0.0 4.0 0 0
- 0.15064 2 3 tcp 40 ------- 2 0.0 4.0 0 0
+ 0.1525 1 2 cbr 210 ------- 1 1.0 5.0 14 15
- 0.1525 1 2 cbr 210 ------- 1 1.0 5.0 14 15
r 0.15336 1 2 cbr 210 ------- 1 1.0 5.0 0 1
+ 0.15336 2 3 cbr 210 ------- 1 1.0 5.0 0 1
- 0.15336 2 3 cbr 210 ------- 1 1.0 5.0 0 1
+ 0.15625 1 2 cbr 210 ------- 1 1.0 5.0 15 16
- 0.15625 1 2 cbr 210 ------- 1 1.0 5.0 15 16
r 0.15711 1 2 cbr 210 ------- 1 1.0 5.0 1 2
+ 0.15711 2 3 cbr 210 ------- 1 1.0 5.0 1 2
- 0.15711 2 3 cbr 210 ------- 1 1.0 5.0 1 2
+ 0.16 1 2 cbr 210 ------- 1 1.0 5.0 16 17
- 0.16 1 2 cbr 210 ------- 1 1.0 5.0 16 17
r 0.16086 1 2 cbr 210 ------- 1 1.0 5.0 2 3
+ 0.16086 2 3 cbr 210 ------- 1 1.0 5.0 2 3
- 0.16086 2 3 cbr 210 ------- 1 1.0 5.0 2 3
+ 0.16375 1 2 cbr 210 ------- 1 1.0 5.0 17 18
- 0.16375 1 2 cbr 210 ------- 1 1.0 5.0 17 18
r 0.16461 1 2 cbr 210 ------- 1 1.0 5.0 3 4
+ 0.16461 2 3 cbr 210 ------- 1 1.0 5.0 3 4
- 0.16461 2 3 cbr 210 ------- 1 1.0 5.0 3 4
+ 0.1675 1 2 cbr 210 ------- 1 1.0 5.0 18 19
- 0.1675 1 2 cbr 210 ------- 1 1.0 5.0 18 19
r 0.16836 1 2 cbr 210 ------- 1 1.0 5.0 4 5
+ 0.16836 2 3 cbr 210 ------- 1 1.0 5.0 4 5
- 0.16836 2 3 cbr 210 ------- 1 1.0 5.0 4 5
+ 0.17125 1 2 cbr 210 ------- 1 1.0 5.0 19 20
- 0.17125 1 2 cbr 210 ------- 1 1.0 5.0 19 20
r 0.17211 1 2 cbr 210 ------- 1 1.0 5.0 5 6
+ 0.17211 2 3 cbr 210 ------- 1 1.0 5.0 5 6
- 0.17211 2 3 cbr 210 ------- 1 1.0 5.0 5 6
+ 0.175 1 2 cbr 210 ------- 1 1.0 5.0 20 21
- 0.175 1 2 cbr 210 ------- 1 1.0 5.0 20 21
r 0.17586 1 2 cbr 210 ------- 1 1.0 5.0 6 7
+ 0.17586 2 3 cbr 210 ------- 1 1.0 5.0 6 7
- 0.17586 2 3 cbr 210 ------- 1 1.0 5.0 6 7
+ 0.17875 1 2 cbr 210 ------- 1 1.0 5.0 21 22
- 0.17875 1 2 cbr 210 ------- 1 1.0 5.0 21 22
r 0.17961 1 2 cbr 210 ------- 1 1.0 5.0 7 8
+ 0.17961 2 3 cbr 210 ------- 1 1.0 5.0 7 8
- 0.17961 2 3 cbr 210 ------- 1 1.0 5.0 7 8
+ 0.1825 1 2 cbr 210 ------- 1 1.0 5.0 22 23
- 0.1825 1 2 cbr 210 ------- 1 1.0 5.0 22 23
r 0.18336 1 2 cbr 210 ------- 1 1.0 5.0 8 9
+ 0.18336 2 3 cbr 210 ------- 1 1.0 5.0 8 9
- 0.18336 2 3 cbr 210 ------- 1 1.0 5.0 8 9
+ 0.18625 1 2 cbr 210 ------- 1 1.0 5.0 23 24
- 0.18625 1 2 cbr 210 ------- 1 1.0 5.0 23 24
r 0.18711 1 2 cbr 210 ------- 1 1.0 5.0 9 10
+ 0.18711 2 3 cbr 210 ------- 1 1.0 5.0 9 10
- 0.18711 2 3 cbr 210 ------- 1 1.0 5.0 9 10
+ 0.19 1 2 cbr 210 ------- 1 1.0 5.0 24 25
- 0.19 1 2 cbr 210 ------- 1 1.0 5.0 24 25
r 0.19086 1 2 cbr 210 ------- 1 1.0 5.0 10 11
+ 0.19086 2 3 cbr 210 ------- 1 1.0 5.0 10 11
- 0.19086 2 3 cbr 210 ------- 1 1.0 5.0 10 11
+ 0.19375 1 2 cbr 210 ------- 1 1.0 5.0 25 26
- 0.19375 1 2 cbr 210 ------- 1 1.0 5.0 25 26
r 0.19461 1 2 cbr 210 ------- 1 1.0 5.0 11 12
+ 0.19461 2 3 cbr 210 ------- 1 1.0 5.0 11 12
- 0.19461 2 3 cbr 210 ------- 1 1.0 5.0 11 12
+ 0.1975 1 2 cbr 210 ------- 1 1.0 5.0 26 27
- 0.1975 1 2 cbr 210 ------- 1 1.0 5.0 26 27
r 0.19836 1 2 cbr 210 ------- 1 1.0 5.0 12 13
+ 0.19836 2 3 cbr 210 ------- 1 1.0 5.0 12 13
- 0.19836 2 3 cbr 210 ------- 1 1.0 5.0 12 13
+ 0.20125 1 2 cbr 210 ------- 1 1.0 5.0 27 28
- 0.20125 1 2 cbr 210 ------- 1 1.0 5.0 27 28
r 0.20128 2 3 tcp 40 ------- 2 0.0 4.0 0 0
+ 0.20128 3 4 tcp 40 ------- 2 0.0 4.0 0 0
- 0.20128 3 4 tcp 40 ------- 2 0.0 4.0 0 0
r 0.20211 1 2 cbr 210 ------- 1 1.0 5.0 13 14
+ 0.20211 2 3 cbr 210 ------- 1 1.0 5.0 13 14
- 0.20211 2 3 cbr 210 ------- 1 1.0 5.0 13 14
+ 0.205 1 2 cbr 210 ------- 1 1.0 5.0 28 29
- 0.205 1 2 cbr 210 ------- 1 1.0 5.0 28 29
r 0.20586 1 2 cbr 210 ------- 1 1.0 5.0 14 15
+ 0.20586 2 3 cbr 210 ------- 1 1.0 5.0 14 15
- 0.20586 2 3 cbr 210 ------- 1 1.0 5.0 14 15
r 0.20672 2 3 cbr 210 ------- 1 1.0 5.0 0 1
+ 0.20672 3 5 cbr 210 ------- 1 1.0 5.0 0 1
- 0.20672 3 5 cbr 210 ------- 1 1.0 5.0 0 1
+ 0.20875 1 2 cbr 210 ------- 1 1.0 5.0 29 30
- 0.20875 1 2 cbr 210 ------- 1 1.0 5.0 29 30
r 0.20961 1 2 cbr 210 ------- 1 1.0 5.0 15 16
+ 0.20961 2 3 cbr 210 ------- 1 1.0 5.0 15 16
- 0.20961 2 3 cbr 210 ------- 1 1.0 5.0 15 16
r 0.21047 2 3 cbr 210 ------- 1 1.0 5.0 1 2
+ 0.21047 3 5 cbr 210 ------- 1 1.0 5.0 1 2
- 0.21047 3 5 cbr 210 ------- 1 1.0 5.0 1 2
+ 0.2125 1 2 cbr 210 ------- 1 1.0 5.0 30 31
- 0.2125 1 2 cbr 210 ------- 1 1.0 5.0 30 31
r 0.21336 1 2 cbr 210 ------- 1 1.0 5.0 16 17
+ 0.21336 2 3 cbr 210 ------- 1 1.0 5.0 16 17
- 0.21336 2 3 cbr 210 ------- 1 1.0 5.0 16 17
r 0.21422 2 3 cbr 210 ------- 1 1.0 5.0 2 3
+ 0.21422 3 5 cbr 210 ------- 1 1.0 5.0 2 3
- 0.21422 3 5 cbr 210 ------- 1 1.0 5.0 2 3
+ 0.21625 1 2 cbr 210 ------- 1 1.0 5.0 31 32
- 0.21625 1 2 cbr 210 ------- 1 1.0 5.0 31 32
r 0.21711 1 2 cbr 210 ------- 1 1.0 5.0 17 18
+ 0.21711 2 3 cbr 210 ------- 1 1.0 5.0 17 18
- 0.21711 2 3 cbr 210 ------- 1 1.0 5.0 17 18
r 0.21797 2 3 cbr 210 ------- 1 1.0 5.0 3 4
+ 0.21797 3 5 cbr 210 ------- 1 1.0 5.0 3 4
- 0.21797 3 5 cbr 210 ------- 1 1.0 5.0 3 4
+ 0.22 1 2 cbr 210 ------- 1 1.0 5.0 32 33
- 0.22 1 2 cbr 210 ------- 1 1.0 5.0 32 33
r 0.22086 1 2 cbr 210 ------- 1 1.0 5.0 18 19
+ 0.22086 2 3 cbr 210 ------- 1 1.0 5.0 18 19
- 0.22086 2 3 cbr 210 ------- 1 1.0 5.0 18 19
r 0.22172 2 3 cbr 210 ------- 1 1.0 5.0 4 5
+ 0.22172 3 5 cbr 210 ------- 1 1.0 5.0 4 5
- 0.22172 3 5 cbr 210 ------- 1 1.0 5.0 4 5
+ 0.22375 1 2 cbr 210 ------- 1 1.0 5.0 33 34
- 0.22375 1 2 cbr 210 ------- 1 1.0 5.0 33 34
r 0.22461 1 2 cbr 210 ------- 1 1.0 5.0 19 20
+ 0.22461 2 3 cbr 210 ------- 1 1.0 5.0 19 20
- 0.22461 2 3 cbr 210 ------- 1 1.0 5.0 19 20
r 0.22547 2 3 cbr 210 ------- 1 1.0 5.0 5 6
+ 0.22547 3 5 cbr 210 ------- 1 1.0 5.0 5 6
- 0.22547 3 5 cbr 210 ------- 1 1.0 5.0 5 6
+ 0.2275 1 2 cbr 210 ------- 1 1.0 5.0 34 35
- 0.2275 1 2 cbr 210 ------- 1 1.0 5.0 34 35
r 0.22836 1 2 cbr 210 ------- 1 1.0 5.0 20 21
+ 0.22836 2 3 cbr 210 ------- 1 1.0 5.0 20 21
- 0.22836 2 3 cbr 210 ------- 1 1.0 5.0 20 21
r 0.22922 2 3 cbr 210 ------- 1 1.0 5.0 6 7
+ 0.22922 3 5 cbr 210 ------- 1 1.0 5.0 6 7
- 0.22922 3 5 cbr 210 ------- 1 1.0 5.0 6 7
+ 0.23125 1 2 cbr 210 ------- 1 1.0 5.0 35 36
- 0.23125 1 2 cbr 210 ------- 1 1.0 5.0 35 36
r 0.23211 1 2 cbr 210 ------- 1 1.0 5.0 21 22
+ 0.23211 2 3 cbr 210 ------- 1 1.0 5.0 21 22
- 0.23211 2 3 cbr 210 ------- 1 1.0 5.0 21 22
r 0.23297 2 3 cbr 210 ------- 1 1.0 5.0 7 8
+ 0.23297 3 5 cbr 210 ------- 1 1.0 5.0 7 8
- 0.23297 3 5 cbr 210 ------- 1 1.0 5.0 7 8
+ 0.235 1 2 cbr 210 ------- 1 1.0 5.0 36 37
- 0.235 1 2 cbr 210 ------- 1 1.0 5.0 36 37
r 0.23586 1 2 cbr 210 ------- 1 1.0 5.0 22 23
+ 0.23586 2 3 cbr 210 ------- 1 1.0 5.0 22 23
- 0.23586 2 3 cbr 210 ------- 1 1.0 5.0 22 23
r 0.23672 2 3 cbr 210 ------- 1 1.0 5.0 8 9
+ 0.23672 3 5 cbr 210 ------- 1 1.0 5.0 8 9
- 0.23672 3 5 cbr 210 ------- 1 1.0 5.0 8 9
+ 0.23875 1 2 cbr 210 ------- 1 1.0 5.0 37 38
- 0.23875 1 2 cbr 210 ------- 1 1.0 5.0 37 38
r 0.23961 1 2 cbr 210 ------- 1 1.0 5.0 23 24
+ 0.23961 2 3 cbr 210 ------- 1 1.0 5.0 23 24
- 0.23961 2 3 cbr 210 ------- 1 1.0 5.0 23 24
r 0.24047 2 3 cbr 210 ------- 1 1.0 5.0 9 10
+ 0.24047 3 5 cbr 210 ------- 1 1.0 5.0 9 10
- 0.24047 3 5 cbr 210 ------- 1 1.0 5.0 9 10
+ 0.2425 1 2 cbr 210 ------- 1 1.0 5.0 38 39
- 0.2425 1 2 cbr 210 ------- 1 1.0 5.0 38 39
r 0.24336 1 2 cbr 210 ------- 1 1.0 5.0 24 25
+ 0.24336 2 3 cbr 210 ------- 1 1.0 5.0 24 25
- 0.24336 2 3 cbr 210 ------- 1 1.0 5.0 24 25
r 0.24422 2 3 cbr 210 ------- 1 1.0 5.0 10 11
+ 0.24422 3 5 cbr 210 ------- 1 1.0 5.0 10 11
- 0.24422 3 5 cbr 210 ------- 1 1.0 5.0 10 11
+ 0.24625 1 2 cbr 210 ------- 1 1.0 5.0 39 40
- 0.24625 1 2 cbr 210 ------- 1 1.0 5.0 39 40
r 0.24711 1 2 cbr 210 ------- 1 1.0 5.0 25 26
+ 0.24711 2 3 cbr 210 ------- 1 1.0 5.0 25 26
- 0.24711 2 3 cbr 210 ------- 1 1.0 5.0 25 26
r 0.24797 2 3 cbr 210 ------- 1 1.0 5.0 11 12
+ 0.24797 3 5 cbr 210 ------- 1 1.0 5.0 11 12
- 0.24797 3 5 cbr 210 ------- 1 1.0 5.0 11 12
+ 0.25 1 2 cbr 210 ------- 1 1.0 5.0 40 41
- 0.25 1 2 cbr 210 ------- 1 1.0 5.0 40 41
r 0.25086 1 2 cbr 210 ------- 1 1.0 5.0 26 27
+ 0.25086 2 3 cbr 210 ------- 1 1.0 5.0 26 27
- 0.25086 2 3 cbr 210 ------- 1 1.0 5.0 26 27
r 0.25172 2 3 cbr 210 ------- 1 1.0 5.0 12 13
+ 0.25172 3 5 cbr 210 ------- 1 1.0 5.0 12 13
- 0.25172 3 5 cbr 210 ------- 1 1.0 5.0 12 13
r 0.25192 3 4 tcp 40 ------- 2 0.0 4.0 0 0
+ 0.25192 4 3 ack 40 ------- 2 4.0 0.0 0 42
- 0.25192 4 3 ack 40 ------- 2 4.0 0.0 0 42
+ 0.25375 1 2 cbr 210 ------- 1 1.0 5.0 41 43
- 0.25375 1 2 cbr 210 ------- 1 1.0 5.0 41 43
r 0.25461 1 2 cbr 210 ------- 1 1.0 5.0 27 28
+ 0.25461 2 3 cbr 210 ------- 1 1.0 5.0 27 28
- 0.25461 2 3 cbr 210 ------- 1 1.0 5.0 27 28
r 0.25547 2 3 cbr 210 ------- 1 1.0 5.0 13 14
+ 0.25547 3 5 cbr 210 ------- 1 1.0 5.0 13 14
- 0.25547 3 5 cbr 210 ------- 1 1.0 5.0 13 14
+ 0.2575 1 2 cbr 210 ------- 1 1.0 5.0 42 44
- 0.2575 1 2 cbr 210 ------- 1 1.0 5.0 42 44
r 0.25836 1 2 cbr 210 ------- 1 1.0 5.0 28 29
+ 0.25836 2 3 cbr 210 ------- 1 1.0 5.0 28 29
- 0.25836 2 3 cbr 210 ------- 1 1.0 5.0 28 29
r 0.25922 2 3 cbr 210 ------- 1 1.0 5.0 14 15
+ 0.25922 3 5 cbr 210 ------- 1 1.0 5.0 14 15
- 0.25922 3 5 cbr 210 ------- 1 1.0 5.0 14 15
r 0.26008 3 5 cbr 210 ------- 1 1.0 5.0 0 1
+ 0.26125 1 2 cbr 210 ------- 1 1.0 5.0 43 45
- 0.26125 1 2 cbr 210 ------- 1 1.0 5.0 43 45
r 0.26211 1 2 cbr 210 ------- 1 1.0 5.0 29 30
+ 0.26211 2 3 cbr 210 ------- 1 1.0 5.0 29 30
- 0.26211 2 3 cbr 210 ------- 1 1.0 5.0 29 30
r 0.26297 2 3 cbr 210 ------- 1 1.0 5.0 15 16
+ 0.26297 3 5 cbr 210 ------- 1 1.0 5.0 15 16
- 0.26297 3 5 cbr 210 ------- 1 1.0 5.0 15 16
r 0.26383 3 5 cbr 210 ------- 1 1.0 5.0 1 2
+ 0.265 1 2 cbr 210 ------- 1 1.0 5.0 44 46
- 0.265 1 2 cbr 210 ------- 1 1.0 5.0 44 46
r 0.26586 1 2 cbr 210 ------- 1 1.0 5.0 30 31
+ 0.26586 2 3 cbr 210 ------- 1 1.0 5.0 30 31
- 0.26586 2 3 cbr 210 ------- 1 1.0 5.0 30 31
r 0.26672 2 3 cbr 210 ------- 1 1.0 5.0 16 17
+ 0.26672 3 5 cbr 210 ------- 1 1.0 5.0 16 17
- 0.26672 3 5 cbr 210 ------- 1 1.0 5.0 16 17
r 0.26758 3 5 cbr 210 ------- 1 1.0 5.0 2 3
+ 0.26875 1 2 cbr 210 ------- 1 1.0 5.0 45 47
- 0.26875 1 2 cbr 210 ------- 1 1.0 5.0 45 47
r 0.26961 1 2 cbr 210 ------- 1 1.0 5.0 31 32
+ 0.26961 2 3 cbr 210 ------- 1 1.0 5.0 31 32
- 0.26961 2 3 cbr 210 ------- 1 1.0 5.0 31 32
r 0.27047 2 3 cbr 210 ------- 1 1.0 5.0 17 18
+ 0.27047 3 5 cbr 210 ------- 1 1.0 5.0 17 18
- 0.27047 3 5 cbr 210 ------- 1 1.0 5.0 17 18
r 0.27133 3 5 cbr 210 ------- 1 1.0 5.0 3 4
+ 0.2725 1 2 cbr 210 ------- 1 1.0 5.0 46 48
- 0.2725 1 2 cbr 210 ------- 1 1.0 5.0 46 48
r 0.27336 1 2 cbr 210 ------- 1 1.0 5.0 32 33
+ 0.27336 2 3 cbr 210 ------- 1 1.0 5.0 32 33
- 0.27336 2 3 cbr 210 ------- 1 1.0 5.0 32 33
r 0.27422 2 3 cbr 210 ------- 1 1.0 5.0 18 19
+ 0.27422 3 5 cbr 210 ------- 1 1.0 5.0 18 19
- 0.27422 3 5 cbr 210 ------- 1 1.0 5.0 18 19
r 0.27508 3 5 cbr 210 ------- 1 1.0 5.0 4 5
+ 0.27625 1 2 cbr 210 ------- 1 1.0 5.0 47 49
- 0.27625 1 2 cbr 210 ------- 1 1.0 5.0 47 49
r 0.27711 1 2 cbr 210 ------- 1 1.0 5.0 33 34
+ 0.27711 2 3 cbr 210 ------- 1 1.0 5.0 33 34
- 0.27711 2 3 cbr 210 ------- 1 1.0 5.0 33 34
r 0.27797 2 3 cbr 210 ------- 1 1.0 5.0 19 20
+ 0.27797 3 5 cbr 210 ------- 1 1.0 5.0 19 20
- 0.27797 3 5 cbr 210 ------- 1 1.0 5.0 19 20
r 0.27883 3 5 cbr 210 ------- 1 1.0 5.0 5 6
+ 0.28 1 2 cbr 210 ------- 1 1.0 5.0 48 50
- 0.28 1 2 cbr 210 ------- 1 1.0 5.0 48 50
r 0.28086 1 2 cbr 210 ------- 1 1.0 5.0 34 35
+ 0.28086 2 3 cbr 210 ------- 1 1.0 5.0 34 35
- 0.28086 2 3 cbr 210 ------- 1 1.0 5.0 34 35
r 0.28172 2 3 cbr 210 ------- 1 1.0 5.0 20 21
+ 0.28172 3 5 cbr 210 ------- 1 1.0 5.0 20 21
- 0.28172 3 5 cbr 210 ------- 1 1.0 5.0 20 21
r 0.28258 3 5 cbr 210 ------- 1 1.0 5.0 6 7
+ 0.28375 1 2 cbr 210 ------- 1 1.0 5.0 49 51
- 0.28375 1 2 cbr 210 ------- 1 1.0 5.0 49 51
r 0.28461 1 2 cbr 210 ------- 1 1.0 5.0 35 36
+ 0.28461 2 3 cbr 210 ------- 1 1.0 5.0 35 36
- 0.28461 2 3 cbr 210 ------- 1 1.0 5.0 35 36
r 0.28547 2 3 cbr 210 ------- 1 1.0 5.0 21 22
+ 0.28547 3 5 cbr 210 ------- 1 1.0 5.0 21 22
- 0.28547 3 5 cbr 210 ------- 1 1.0 5.0 21 22
r 0.28633 3 5 cbr 210 ------- 1 1.0 5.0 7 8
+ 0.2875 1 2 cbr 210 ------- 1 1.0 5.0 50 52
- 0.2875 1 2 cbr 210 ------- 1 1.0 5.0 50 52
r 0.28836 1 2 cbr 210 ------- 1 1.0 5.0 36 37
+ 0.28836 2 3 cbr 210 ------- 1 1.0 5.0 36 37
- 0.28836 2 3 cbr 210 ------- 1 1.0 5.0 36 37
r 0.28922 2 3 cbr 210 ------- 1 1.0 5.0 22 23
+ 0.28922 3 5 cbr 210 ------- 1 1.0 5.0 22 23
- 0.28922 3 5 cbr 210 ------- 1 1.0 5.0 22 23
r 0.29008 3 5 cbr 210 ------- 1 1.0 5.0 8 9
+ 0.29125 1 2 cbr 210 ------- 1 1.0 5.0 51 53
- 0.29125 1 2 cbr 210 ------- 1 1.0 5.0 51 53
r 0.29211 1 2 cbr 210 ------- 1 1.0 5.0 37 38
+ 0.29211 2 3 cbr 210 ------- 1 1.0 5.0 37 38
- 0.29211 2 3 cbr 210 ------- 1 1.0 5.0 37 38
r 0.29297 2 3 cbr 210 ------- 1 1.0 5.0 23 24
+ 0.29297 3 5 cbr 210 ------- 1 1.0 5.0 23 24
- 0.29297 3 5 cbr 210 ------- 1 1.0 5.0 23 24
r 0.29383 3 5 cbr 210 ------- 1 1.0 5.0 9 10
+ 0.295 1 2 cbr 210 ------- 1 1.0 5.0 52 54
- 0.295 1 2 cbr 210 ------- 1 1.0 5.0 52 54
r 0.29586 1 2 cbr 210 ------- 1 1.0 5.0 38 39
+ 0.29586 2 3 cbr 210 ------- 1 1.0 5.0 38 39
- 0.29586 2 3 cbr 210 ------- 1 1.0 5.0 38 39
r 0.29672 2 3 cbr 210 ------- 1 1.0 5.0 24 25
+ 0.29672 3 5 cbr 210 ------- 1 1.0 5.0 24 25
- 0.29672 3 5 cbr 210 ------- 1 1.0 5.0 24 25
r 0.29758 3 5 cbr 210 ------- 1 1.0 5.0 10 11
+ 0.29875 1 2 cbr 210 ------- 1 1.0 5.0 53 55
- 0.29875 1 2 cbr 210 ------- 1 1.0 5.0 53 55
r 0.29961 1 2 cbr 210 ------- 1 1.0 5.0 39 40
+ 0.29961 2 3 cbr 210 ------- 1 1.0 5.0 39 40
- 0.29961 2 3 cbr 210 ------- 1 1.0 5.0 39 40
v 0.29999999999999999 eval {set sim_annotation {Recebendo Ack_0 (FTP)}}
r 0.30047 2 3 cbr 210 ------- 1 1.0 5.0 25 26
+ 0.30047 3 5 cbr 210 ------- 1 1.0 5.0 25 26
- 0.30047 3 5 cbr 210 ------- 1 1.0 5.0 25 26
r 0.30133 3 5 cbr 210 ------- 1 1.0 5.0 11 12
+ 0.3025 1 2 cbr 210 ------- 1 1.0 5.0 54 56
- 0.3025 1 2 cbr 210 ------- 1 1.0 5.0 54 56
r 0.30256 4 3 ack 40 ------- 2 4.0 0.0 0 42
+ 0.30256 3 2 ack 40 ------- 2 4.0 0.0 0 42
- 0.30256 3 2 ack 40 ------- 2 4.0 0.0 0 42
r 0.30336 1 2 cbr 210 ------- 1 1.0 5.0 40 41
+ 0.30336 2 3 cbr 210 ------- 1 1.0 5.0 40 41
- 0.30336 2 3 cbr 210 ------- 1 1.0 5.0 40 41
r 0.30422 2 3 cbr 210 ------- 1 1.0 5.0 26 27
+ 0.30422 3 5 cbr 210 ------- 1 1.0 5.0 26 27
- 0.30422 3 5 cbr 210 ------- 1 1.0 5.0 26 27
r 0.30508 3 5 cbr 210 ------- 1 1.0 5.0 12 13
+ 0.30625 1 2 cbr 210 ------- 1 1.0 5.0 55 57
- 0.30625 1 2 cbr 210 ------- 1 1.0 5.0 55 57
r 0.30711 1 2 cbr 210 ------- 1 1.0 5.0 41 43
+ 0.30711 2 3 cbr 210 ------- 1 1.0 5.0 41 43
- 0.30711 2 3 cbr 210 ------- 1 1.0 5.0 41 43
r 0.30797 2 3 cbr 210 ------- 1 1.0 5.0 27 28
+ 0.30797 3 5 cbr 210 ------- 1 1.0 5.0 27 28
- 0.30797 3 5 cbr 210 ------- 1 1.0 5.0 27 28
r 0.30883 3 5 cbr 210 ------- 1 1.0 5.0 13 14
+ 0.31 1 2 cbr 210 ------- 1 1.0 5.0 56 58
- 0.31 1 2 cbr 210 ------- 1 1.0 5.0 56 58
r 0.31086 1 2 cbr 210 ------- 1 1.0 5.0 42 44
+ 0.31086 2 3 cbr 210 ------- 1 1.0 5.0 42 44
- 0.31086 2 3 cbr 210 ------- 1 1.0 5.0 42 44
r 0.31172 2 3 cbr 210 ------- 1 1.0 5.0 28 29
+ 0.31172 3 5 cbr 210 ------- 1 1.0 5.0 28 29
- 0.31172 3 5 cbr 210 ------- 1 1.0 5.0 28 29
r 0.31258 3 5 cbr 210 ------- 1 1.0 5.0 14 15
+ 0.31375 1 2 cbr 210 ------- 1 1.0 5.0 57 59
- 0.31375 1 2 cbr 210 ------- 1 1.0 5.0 57 59
r 0.31461 1 2 cbr 210 ------- 1 1.0 5.0 43 45
+ 0.31461 2 3 cbr 210 ------- 1 1.0 5.0 43 45
- 0.31461 2 3 cbr 210 ------- 1 1.0 5.0 43 45
r 0.31547 2 3 cbr 210 ------- 1 1.0 5.0 29 30
+ 0.31547 3 5 cbr 210 ------- 1 1.0 5.0 29 30
- 0.31547 3 5 cbr 210 ------- 1 1.0 5.0 29 30
r 0.31633 3 5 cbr 210 ------- 1 1.0 5.0 15 16
+ 0.3175 1 2 cbr 210 ------- 1 1.0 5.0 58 60
- 0.3175 1 2 cbr 210 ------- 1 1.0 5.0 58 60
r 0.31836 1 2 cbr 210 ------- 1 1.0 5.0 44 46
+ 0.31836 2 3 cbr 210 ------- 1 1.0 5.0 44 46
- 0.31836 2 3 cbr 210 ------- 1 1.0 5.0 44 46
r 0.31922 2 3 cbr 210 ------- 1 1.0 5.0 30 31
+ 0.31922 3 5 cbr 210 ------- 1 1.0 5.0 30 31
- 0.31922 3 5 cbr 210 ------- 1 1.0 5.0 30 31
r 0.32008 3 5 cbr 210 ------- 1 1.0 5.0 16 17
+ 0.32125 1 2 cbr 210 ------- 1 1.0 5.0 59 61
- 0.32125 1 2 cbr 210 ------- 1 1.0 5.0 59 61
r 0.32211 1 2 cbr 210 ------- 1 1.0 5.0 45 47
+ 0.32211 2 3 cbr 210 ------- 1 1.0 5.0 45 47
- 0.32211 2 3 cbr 210 ------- 1 1.0 5.0 45 47
r 0.32297 2 3 cbr 210 ------- 1 1.0 5.0 31 32
+ 0.32297 3 5 cbr 210 ------- 1 1.0 5.0 31 32
- 0.32297 3 5 cbr 210 ------- 1 1.0 5.0 31 32
r 0.32383 3 5 cbr 210 ------- 1 1.0 5.0 17 18
+ 0.325 1 2 cbr 210 ------- 1 1.0 5.0 60 62
- 0.325 1 2 cbr 210 ------- 1 1.0 5.0 60 62
r 0.32586 1 2 cbr 210 ------- 1 1.0 5.0 46 48
+ 0.32586 2 3 cbr 210 ------- 1 1.0 5.0 46 48
- 0.32586 2 3 cbr 210 ------- 1 1.0 5.0 46 48
r 0.32672 2 3 cbr 210 ------- 1 1.0 5.0 32 33
+ 0.32672 3 5 cbr 210 ------- 1 1.0 5.0 32 33
- 0.32672 3 5 cbr 210 ------- 1 1.0 5.0 32 33
r 0.32758 3 5 cbr 210 ------- 1 1.0 5.0 18 19
+ 0.32875 1 2 cbr 210 ------- 1 1.0 5.0 61 63
- 0.32875 1 2 cbr 210 ------- 1 1.0 5.0 61 63
r 0.32961 1 2 cbr 210 ------- 1 1.0 5.0 47 49
+ 0.32961 2 3 cbr 210 ------- 1 1.0 5.0 47 49
- 0.32961 2 3 cbr 210 ------- 1 1.0 5.0 47 49
r 0.33047 2 3 cbr 210 ------- 1 1.0 5.0 33 34
+ 0.33047 3 5 cbr 210 ------- 1 1.0 5.0 33 34
- 0.33047 3 5 cbr 210 ------- 1 1.0 5.0 33 34
r 0.33133 3 5 cbr 210 ------- 1 1.0 5.0 19 20
+ 0.3325 1 2 cbr 210 ------- 1 1.0 5.0 62 64
- 0.3325 1 2 cbr 210 ------- 1 1.0 5.0 62 64
r 0.33336 1 2 cbr 210 ------- 1 1.0 5.0 48 50
+ 0.33336 2 3 cbr 210 ------- 1 1.0 5.0 48 50
- 0.33336 2 3 cbr 210 ------- 1 1.0 5.0 48 50
r 0.33422 2 3 cbr 210 ------- 1 1.0 5.0 34 35
+ 0.33422 3 5 cbr 210 ------- 1 1.0 5.0 34 35
- 0.33422 3 5 cbr 210 ------- 1 1.0 5.0 34 35
r 0.33508 3 5 cbr 210 ------- 1 1.0 5.0 20 21
+ 0.33625 1 2 cbr 210 ------- 1 1.0 5.0 63 65
- 0.33625 1 2 cbr 210 ------- 1 1.0 5.0 63 65
r 0.33711 1 2 cbr 210 ------- 1 1.0 5.0 49 51
+ 0.33711 2 3 cbr 210 ------- 1 1.0 5.0 49 51
- 0.33711 2 3 cbr 210 ------- 1 1.0 5.0 49 51
r 0.33797 2 3 cbr 210 ------- 1 1.0 5.0 35 36
+ 0.33797 3 5 cbr 210 ------- 1 1.0 5.0 35 36
- 0.33797 3 5 cbr 210 ------- 1 1.0 5.0 35 36
r 0.33883 3 5 cbr 210 ------- 1 1.0 5.0 21 22
+ 0.34 1 2 cbr 210 ------- 1 1.0 5.0 64 66
- 0.34 1 2 cbr 210 ------- 1 1.0 5.0 64 66
r 0.34086 1 2 cbr 210 ------- 1 1.0 5.0 50 52
+ 0.34086 2 3 cbr 210 ------- 1 1.0 5.0 50 52
- 0.34086 2 3 cbr 210 ------- 1 1.0 5.0 50 52
r 0.34172 2 3 cbr 210 ------- 1 1.0 5.0 36 37
+ 0.34172 3 5 cbr 210 ------- 1 1.0 5.0 36 37
- 0.34172 3 5 cbr 210 ------- 1 1.0 5.0 36 37
r 0.34258 3 5 cbr 210 ------- 1 1.0 5.0 22 23
+ 0.34375 1 2 cbr 210 ------- 1 1.0 5.0 65 67
- 0.34375 1 2 cbr 210 ------- 1 1.0 5.0 65 67
r 0.34461 1 2 cbr 210 ------- 1 1.0 5.0 51 53
+ 0.34461 2 3 cbr 210 ------- 1 1.0 5.0 51 53
- 0.34461 2 3 cbr 210 ------- 1 1.0 5.0 51 53
r 0.34547 2 3 cbr 210 ------- 1 1.0 5.0 37 38
+ 0.34547 3 5 cbr 210 ------- 1 1.0 5.0 37 38
- 0.34547 3 5 cbr 210 ------- 1 1.0 5.0 37 38
r 0.34633 3 5 cbr 210 ------- 1 1.0 5.0 23 24
+ 0.3475 1 2 cbr 210 ------- 1 1.0 5.0 66 68
- 0.3475 1 2 cbr 210 ------- 1 1.0 5.0 66 68
r 0.34836 1 2 cbr 210 ------- 1 1.0 5.0 52 54
+ 0.34836 2 3 cbr 210 ------- 1 1.0 5.0 52 54
- 0.34836 2 3 cbr 210 ------- 1 1.0 5.0 52 54
r 0.34922 2 3 cbr 210 ------- 1 1.0 5.0 38 39
+ 0.34922 3 5 cbr 210 ------- 1 1.0 5.0 38 39
- 0.34922 3 5 cbr 210 ------- 1 1.0 5.0 38 39
r 0.35008 3 5 cbr 210 ------- 1 1.0 5.0 24 25
+ 0.35125 1 2 cbr 210 ------- 1 1.0 5.0 67 69
- 0.35125 1 2 cbr 210 ------- 1 1.0 5.0 67 69
r 0.35211 1 2 cbr 210 ------- 1 1.0 5.0 53 55
+ 0.35211 2 3 cbr 210 ------- 1 1.0 5.0 53 55
- 0.35211 2 3 cbr 210 ------- 1 1.0 5.0 53 55
r 0.35297 2 3 cbr 210 ------- 1 1.0 5.0 39 40
+ 0.35297 3 5 cbr 210 ------- 1 1.0 5.0 39 40
- 0.35297 3 5 cbr 210 ------- 1 1.0 5.0 39 40
r 0.3532 3 2 ack 40 ------- 2 4.0 0.0 0 42
+ 0.3532 2 0 ack 40 ------- 2 4.0 0.0 0 42
- 0.3532 2 0 ack 40 ------- 2 4.0 0.0 0 42
r 0.35383 3 5 cbr 210 ------- 1 1.0 5.0 25 26
+ 0.355 1 2 cbr 210 ------- 1 1.0 5.0 68 70
- 0.355 1 2 cbr 210 ------- 1 1.0 5.0 68 70
r 0.35586 1 2 cbr 210 ------- 1 1.0 5.0 54 56
+ 0.35586 2 3 cbr 210 ------- 1 1.0 5.0 54 56
- 0.35586 2 3 cbr 210 ------- 1 1.0 5.0 54 56
r 0.35672 2 3 cbr 210 ------- 1 1.0 5.0 40 41
+ 0.35672 3 5 cbr 210 ------- 1 1.0 5.0 40 41
- 0.35672 3 5 cbr 210 ------- 1 1.0 5.0 40 41
r 0.35758 3 5 cbr 210 ------- 1 1.0 5.0 26 27
+ 0.35875 1 2 cbr 210 ------- 1 1.0 5.0 69 71
- 0.35875 1 2 cbr 210 ------- 1 1.0 5.0 69 71
r 0.35961 1 2 cbr 210 ------- 1 1.0 5.0 55 57
+ 0.35961 2 3 cbr 210 ------- 1 1.0 5.0 55 57
- 0.35961 2 3 cbr 210 ------- 1 1.0 5.0 55 57
r 0.36047 2 3 cbr 210 ------- 1 1.0 5.0 41 43
+ 0.36047 3 5 cbr 210 ------- 1 1.0 5.0 41 43
- 0.36047 3 5 cbr 210 ------- 1 1.0 5.0 41 43
r 0.36133 3 5 cbr 210 ------- 1 1.0 5.0 27 28
+ 0.3625 1 2 cbr 210 ------- 1 1.0 5.0 70 72
- 0.3625 1 2 cbr 210 ------- 1 1.0 5.0 70 72
r 0.36336 1 2 cbr 210 ------- 1 1.0 5.0 56 58
+ 0.36336 2 3 cbr 210 ------- 1 1.0 5.0 56 58
- 0.36336 2 3 cbr 210 ------- 1 1.0 5.0 56 58
r 0.36422 2 3 cbr 210 ------- 1 1.0 5.0 42 44
+ 0.36422 3 5 cbr 210 ------- 1 1.0 5.0 42 44
- 0.36422 3 5 cbr 210 ------- 1 1.0 5.0 42 44
r 0.36508 3 5 cbr 210 ------- 1 1.0 5.0 28 29
+ 0.36625 1 2 cbr 210 ------- 1 1.0 5.0 71 73
- 0.36625 1 2 cbr 210 ------- 1 1.0 5.0 71 73
r 0.36711 1 2 cbr 210 ------- 1 1.0 5.0 57 59
+ 0.36711 2 3 cbr 210 ------- 1 1.0 5.0 57 59
- 0.36711 2 3 cbr 210 ------- 1 1.0 5.0 57 59
r 0.36797 2 3 cbr 210 ------- 1 1.0 5.0 43 45
+ 0.36797 3 5 cbr 210 ------- 1 1.0 5.0 43 45
- 0.36797 3 5 cbr 210 ------- 1 1.0 5.0 43 45
r 0.36883 3 5 cbr 210 ------- 1 1.0 5.0 29 30
+ 0.37 1 2 cbr 210 ------- 1 1.0 5.0 72 74
- 0.37 1 2 cbr 210 ------- 1 1.0 5.0 72 74
r 0.37086 1 2 cbr 210 ------- 1 1.0 5.0 58 60
+ 0.37086 2 3 cbr 210 ------- 1 1.0 5.0 58 60
- 0.37086 2 3 cbr 210 ------- 1 1.0 5.0 58 60
r 0.37172 2 3 cbr 210 ------- 1 1.0 5.0 44 46
+ 0.37172 3 5 cbr 210 ------- 1 1.0 5.0 44 46
- 0.37172 3 5 cbr 210 ------- 1 1.0 5.0 44 46
r 0.37258 3 5 cbr 210 ------- 1 1.0 5.0 30 31
+ 0.37375 1 2 cbr 210 ------- 1 1.0 5.0 73 75
- 0.37375 1 2 cbr 210 ------- 1 1.0 5.0 73 75
r 0.37461 1 2 cbr 210 ------- 1 1.0 5.0 59 61
+ 0.37461 2 3 cbr 210 ------- 1 1.0 5.0 59 61
- 0.37461 2 3 cbr 210 ------- 1 1.0 5.0 59 61
r 0.37547 2 3 cbr 210 ------- 1 1.0 5.0 45 47
+ 0.37547 3 5 cbr 210 ------- 1 1.0 5.0 45 47
- 0.37547 3 5 cbr 210 ------- 1 1.0 5.0 45 47
r 0.37633 3 5 cbr 210 ------- 1 1.0 5.0 31 32
+ 0.3775 1 2 cbr 210 ------- 1 1.0 5.0 74 76
- 0.3775 1 2 cbr 210 ------- 1 1.0 5.0 74 76
r 0.37836 1 2 cbr 210 ------- 1 1.0 5.0 60 62
+ 0.37836 2 3 cbr 210 ------- 1 1.0 5.0 60 62
- 0.37836 2 3 cbr 210 ------- 1 1.0 5.0 60 62
r 0.37922 2 3 cbr 210 ------- 1 1.0 5.0 46 48
+ 0.37922 3 5 cbr 210 ------- 1 1.0 5.0 46 48
- 0.37922 3 5 cbr 210 ------- 1 1.0 5.0 46 48
r 0.38008 3 5 cbr 210 ------- 1 1.0 5.0 32 33
+ 0.38125 1 2 cbr 210 ------- 1 1.0 5.0 75 77
- 0.38125 1 2 cbr 210 ------- 1 1.0 5.0 75 77
r 0.38211 1 2 cbr 210 ------- 1 1.0 5.0 61 63
+ 0.38211 2 3 cbr 210 ------- 1 1.0 5.0 61 63
- 0.38211 2 3 cbr 210 ------- 1 1.0 5.0 61 63
r 0.38297 2 3 cbr 210 ------- 1 1.0 5.0 47 49
+ 0.38297 3 5 cbr 210 ------- 1 1.0 5.0 47 49
- 0.38297 3 5 cbr 210 ------- 1 1.0 5.0 47 49
r 0.38383 3 5 cbr 210 ------- 1 1.0 5.0 33 34
+ 0.385 1 2 cbr 210 ------- 1 1.0 5.0 76 78
- 0.385 1 2 cbr 210 ------- 1 1.0 5.0 76 78
r 0.38586 1 2 cbr 210 ------- 1 1.0 5.0 62 64
+ 0.38586 2 3 cbr 210 ------- 1 1.0 5.0 62 64
- 0.38586 2 3 cbr 210 ------- 1 1.0 5.0 62 64
r 0.38672 2 3 cbr 210 ------- 1 1.0 5.0 48 50
+ 0.38672 3 5 cbr 210 ------- 1 1.0 5.0 48 50
- 0.38672 3 5 cbr 210 ------- 1 1.0 5.0 48 50
r 0.38758 3 5 cbr 210 ------- 1 1.0 5.0 34 35
+ 0.38875 1 2 cbr 210 ------- 1 1.0 5.0 77 79
- 0.38875 1 2 cbr 210 ------- 1 1.0 5.0 77 79
r 0.38961 1 2 cbr 210 ------- 1 1.0 5.0 63 65
+ 0.38961 2 3 cbr 210 ------- 1 1.0 5.0 63 65
- 0.38961 2 3 cbr 210 ------- 1 1.0 5.0 63 65
r 0.39047 2 3 cbr 210 ------- 1 1.0 5.0 49 51
+ 0.39047 3 5 cbr 210 ------- 1 1.0 5.0 49 51
- 0.39047 3 5 cbr 210 ------- 1 1.0 5.0 49 51
r 0.39133 3 5 cbr 210 ------- 1 1.0 5.0 35 36
+ 0.3925 1 2 cbr 210 ------- 1 1.0 5.0 78 80
- 0.3925 1 2 cbr 210 ------- 1 1.0 5.0 78 80
r 0.39336 1 2 cbr 210 ------- 1 1.0 5.0 64 66
+ 0.39336 2 3 cbr 210 ------- 1 1.0 5.0 64 66
- 0.39336 2 3 cbr 210 ------- 1 1.0 5.0 64 66
r 0.39422 2 3 cbr 210 ------- 1 1.0 5.0 50 52
+ 0.39422 3 5 cbr 210 ------- 1 1.0 5.0 50 52
- 0.39422 3 5 cbr 210 ------- 1 1.0 5.0 50 52
r 0.39508 3 5 cbr 210 ------- 1 1.0 5.0 36 37
+ 0.39625 1 2 cbr 210 ------- 1 1.0 5.0 79 81
- 0.39625 1 2 cbr 210 ------- 1 1.0 5.0 79 81
r 0.39711 1 2 cbr 210 ------- 1 1.0 5.0 65 67
+ 0.39711 2 3 cbr 210 ------- 1 1.0 5.0 65 67
- 0.39711 2 3 cbr 210 ------- 1 1.0 5.0 65 67
r 0.39797 2 3 cbr 210 ------- 1 1.0 5.0 51 53
+ 0.39797 3 5 cbr 210 ------- 1 1.0 5.0 51 53
- 0.39797 3 5 cbr 210 ------- 1 1.0 5.0 51 53
r 0.39883 3 5 cbr 210 ------- 1 1.0 5.0 37 38
+ 0.4 1 2 cbr 210 ------- 1 1.0 5.0 80 82
- 0.4 1 2 cbr 210 ------- 1 1.0 5.0 80 82
r 0.40086 1 2 cbr 210 ------- 1 1.0 5.0 66 68
+ 0.40086 2 3 cbr 210 ------- 1 1.0 5.0 66 68
- 0.40086 2 3 cbr 210 ------- 1 1.0 5.0 66 68
r 0.40172 2 3 cbr 210 ------- 1 1.0 5.0 52 54
+ 0.40172 3 5 cbr 210 ------- 1 1.0 5.0 52 54
- 0.40172 3 5 cbr 210 ------- 1 1.0 5.0 52 54
r 0.40258 3 5 cbr 210 ------- 1 1.0 5.0 38 39
+ 0.40375 1 2 cbr 210 ------- 1 1.0 5.0 81 83
- 0.40375 1 2 cbr 210 ------- 1 1.0 5.0 81 83
r 0.40384 2 0 ack 40 ------- 2 4.0 0.0 0 42
+ 0.40384 0 2 tcp 1040 ------- 2 0.0 4.0 1 84
- 0.40384 0 2 tcp 1040 ------- 2 0.0 4.0 1 84
r 0.40461 1 2 cbr 210 ------- 1 1.0 5.0 67 69
+ 0.40461 2 3 cbr 210 ------- 1 1.0 5.0 67 69
- 0.40461 2 3 cbr 210 ------- 1 1.0 5.0 67 69
r 0.40547 2 3 cbr 210 ------- 1 1.0 5.0 53 55
+ 0.40547 3 5 cbr 210 ------- 1 1.0 5.0 53 55
- 0.40547 3 5 cbr 210 ------- 1 1.0 5.0 53 55
r 0.40633 3 5 cbr 210 ------- 1 1.0 5.0 39 40
+ 0.4075 1 2 cbr 210 ------- 1 1.0 5.0 82 85
- 0.4075 1 2 cbr 210 ------- 1 1.0 5.0 82 85
r 0.40836 1 2 cbr 210 ------- 1 1.0 5.0 68 70
+ 0.40836 2 3 cbr 210 ------- 1 1.0 5.0 68 70
- 0.40836 2 3 cbr 210 ------- 1 1.0 5.0 68 70
r 0.40922 2 3 cbr 210 ------- 1 1.0 5.0 54 56
+ 0.40922 3 5 cbr 210 ------- 1 1.0 5.0 54 56
- 0.40922 3 5 cbr 210 ------- 1 1.0 5.0 54 56
r 0.41008 3 5 cbr 210 ------- 1 1.0 5.0 40 41
+ 0.41125 1 2 cbr 210 ------- 1 1.0 5.0 83 86
- 0.41125 1 2 cbr 210 ------- 1 1.0 5.0 83 86
r 0.41211 1 2 cbr 210 ------- 1 1.0 5.0 69 71
+ 0.41211 2 3 cbr 210 ------- 1 1.0 5.0 69 71
- 0.41211 2 3 cbr 210 ------- 1 1.0 5.0 69 71
r 0.41297 2 3 cbr 210 ------- 1 1.0 5.0 55 57
+ 0.41297 3 5 cbr 210 ------- 1 1.0 5.0 55 57
- 0.41297 3 5 cbr 210 ------- 1 1.0 5.0 55 57
r 0.41383 3 5 cbr 210 ------- 1 1.0 5.0 41 43
+ 0.415 1 2 cbr 210 ------- 1 1.0 5.0 84 87
- 0.415 1 2 cbr 210 ------- 1 1.0 5.0 84 87
r 0.41586 1 2 cbr 210 ------- 1 1.0 5.0 70 72
+ 0.41586 2 3 cbr 210 ------- 1 1.0 5.0 70 72
- 0.41586 2 3 cbr 210 ------- 1 1.0 5.0 70 72
r 0.41672 2 3 cbr 210 ------- 1 1.0 5.0 56 58
+ 0.41672 3 5 cbr 210 ------- 1 1.0 5.0 56 58
- 0.41672 3 5 cbr 210 ------- 1 1.0 5.0 56 58
r 0.41758 3 5 cbr 210 ------- 1 1.0 5.0 42 44
+ 0.41875 1 2 cbr 210 ------- 1 1.0 5.0 85 88
- 0.41875 1 2 cbr 210 ------- 1 1.0 5.0 85 88
r 0.41961 1 2 cbr 210 ------- 1 1.0 5.0 71 73
+ 0.41961 2 3 cbr 210 ------- 1 1.0 5.0 71 73
- 0.41961 2 3 cbr 210 ------- 1 1.0 5.0 71 73
r 0.42047 2 3 cbr 210 ------- 1 1.0 5.0 57 59
+ 0.42047 3 5 cbr 210 ------- 1 1.0 5.0 57 59
- 0.42047 3 5 cbr 210 ------- 1 1.0 5.0 57 59
r 0.42133 3 5 cbr 210 ------- 1 1.0 5.0 43 45
+ 0.4225 1 2 cbr 210 ------- 1 1.0 5.0 86 89
- 0.4225 1 2 cbr 210 ------- 1 1.0 5.0 86 89
r 0.42336 1 2 cbr 210 ------- 1 1.0 5.0 72 74
+ 0.42336 2 3 cbr 210 ------- 1 1.0 5.0 72 74
- 0.42336 2 3 cbr 210 ------- 1 1.0 5.0 72 74
r 0.42422 2 3 cbr 210 ------- 1 1.0 5.0 58 60
+ 0.42422 3 5 cbr 210 ------- 1 1.0 5.0 58 60
- 0.42422 3 5 cbr 210 ------- 1 1.0 5.0 58 60
r 0.42508 3 5 cbr 210 ------- 1 1.0 5.0 44 46
+ 0.42625 1 2 cbr 210 ------- 1 1.0 5.0 87 90
- 0.42625 1 2 cbr 210 ------- 1 1.0 5.0 87 90
r 0.42711 1 2 cbr 210 ------- 1 1.0 5.0 73 75
+ 0.42711 2 3 cbr 210 ------- 1 1.0 5.0 73 75
- 0.42711 2 3 cbr 210 ------- 1 1.0 5.0 73 75
r 0.42797 2 3 cbr 210 ------- 1 1.0 5.0 59 61
+ 0.42797 3 5 cbr 210 ------- 1 1.0 5.0 59 61
- 0.42797 3 5 cbr 210 ------- 1 1.0 5.0 59 61
r 0.42883 3 5 cbr 210 ------- 1 1.0 5.0 45 47
+ 0.43 1 2 cbr 210 ------- 1 1.0 5.0 88 91
- 0.43 1 2 cbr 210 ------- 1 1.0 5.0 88 91
r 0.43086 1 2 cbr 210 ------- 1 1.0 5.0 74 76
+ 0.43086 2 3 cbr 210 ------- 1 1.0 5.0 74 76
- 0.43086 2 3 cbr 210 ------- 1 1.0 5.0 74 76
r 0.43172 2 3 cbr 210 ------- 1 1.0 5.0 60 62
+ 0.43172 3 5 cbr 210 ------- 1 1.0 5.0 60 62
- 0.43172 3 5 cbr 210 ------- 1 1.0 5.0 60 62
r 0.43258 3 5 cbr 210 ------- 1 1.0 5.0 46 48
+ 0.43375 1 2 cbr 210 ------- 1 1.0 5.0 89 92