n -t 0 -s 0 -S DLABEL -l "emissor1" -L ""
n -t 0 -s 4 -S DLABEL -l "receptor1" -L ""
n -t 0 -s 1 -S DLABEL -l "emissor2" -L ""
n -t 0 -s 5 -S DLABEL -l "receptor2" -L ""
V -t * -v 1.0a5 -a 0
A -t * -n 1 -p 0 -o 0x7fffffff -c 30 -a 1
A -t * -h 1 -m 1073741823 -s 0
c -t * -i 1 -n Blue
c -t * -i 2 -n Red
n -t * -a 4 -s 4 -S UP -v circle -c black -i black
n -t * -a 0 -s 0 -S UP -v circle -c black -i black
n -t * -a 5 -s 5 -S UP -v circle -c black -i black
n -t * -a 1 -s 1 -S UP -v circle -c black -i black
n -t * -a 2 -s 2 -S UP -v circle -c black -i black
n -t * -a 3 -s 3 -S UP -v circle -c black -i black
l -t * -s 0 -d 2 -S UP -r 2000000 -D 0.029999999999999999 -c black -o right-down
l -t * -s 3 -d 2 -S UP -r 2000000 -D 0.029999999999999999 -c black -o left
l -t * -s 1 -d 2 -S UP -r 2000000 -D 0.029999999999999999 -c black -o right-up
l -t * -s 3 -d 4 -S UP -r 2000000 -D 0.029999999999999999 -c black -o right-up
l -t * -s 3 -d 5 -S UP -r 2000000 -D 0.029999999999999999 -c black -o right-down
+ -t 0.3 -s 0 -d 2 -p cbr -e 500 -c 1 -i 0 -a 1 -x {0.0 4.0 0 ------- null}
- -t 0.3 -s 0 -d 2 -p cbr -e 500 -c 1 -i 0 -a 1 -x {0.0 4.0 0 ------- null}
h -t 0.3 -s 0 -d 2 -p cbr -e 500 -c 1 -i 0 -a 1 -x {0.0 4.0 -1 ------- null}
+ -t 0.305 -s 0 -d 2 -p cbr -e 500 -c 1 -i 1 -a 1 -x {0.0 4.0 1 ------- null}
- -t 0.305 -s 0 -d 2 -p cbr -e 500 -c 1 -i 1 -a 1 -x {0.0 4.0 1 ------- null}
h -t 0.305 -s 0 -d 2 -p cbr -e 500 -c 1 -i 1 -a 1 -x {0.0 4.0 -1 ------- null}
+ -t 0.31 -s 0 -d 2 -p cbr -e 500 -c 1 -i 2 -a 1 -x {0.0 4.0 2 ------- null}
- -t 0.31 -s 0 -d 2 -p cbr -e 500 -c 1 -i 2 -a 1 -x {0.0 4.0 2 ------- null}
h -t 0.31 -s 0 -d 2 -p cbr -e 500 -c 1 -i 2 -a 1 -x {0.0 4.0 -1 ------- null}
+ -t 0.315 -s 0 -d 2 -p cbr -e 500 -c 1 -i 3 -a 1 -x {0.0 4.0 3 ------- null}
- -t 0.315 -s 0 -d 2 -p cbr -e 500 -c 1 -i 3 -a 1 -x {0.0 4.0 3 ------- null}
h -t 0.315 -s 0 -d 2 -p cbr -e 500 -c 1 -i 3 -a 1 -x {0.0 4.0 -1 ------- null}
+ -t 0.32 -s 0 -d 2 -p cbr -e 500 -c 1 -i 4 -a 1 -x {0.0 4.0 4 ------- null}
- -t 0.32 -s 0 -d 2 -p cbr -e 500 -c 1 -i 4 -a 1 -x {0.0 4.0 4 ------- null}
h -t 0.32 -s 0 -d 2 -p cbr -e 500 -c 1 -i 4 -a 1 -x {0.0 4.0 -1 ------- null}
+ -t 0.325 -s 0 -d 2 -p cbr -e 500 -c 1 -i 5 -a 1 -x {0.0 4.0 5 ------- null}
- -t 0.325 -s 0 -d 2 -p cbr -e 500 -c 1 -i 5 -a 1 -x {0.0 4.0 5 ------- null}
h -t 0.325 -s 0 -d 2 -p cbr -e 500 -c 1 -i 5 -a 1 -x {0.0 4.0 -1 ------- null}
+ -t 0.33 -s 0 -d 2 -p cbr -e 500 -c 1 -i 6 -a 1 -x {0.0 4.0 6 ------- null}
- -t 0.33 -s 0 -d 2 -p cbr -e 500 -c 1 -i 6 -a 1 -x {0.0 4.0 6 ------- null}
h -t 0.33 -s 0 -d 2 -p cbr -e 500 -c 1 -i 6 -a 1 -x {0.0 4.0 -1 ------- null}
r -t 0.332 -s 0 -d 2 -p cbr -e 500 -c 1 -i 0 -a 1 -x {0.0 4.0 0 ------- null}
+ -t 0.332 -s 2 -d 3 -p cbr -e 500 -c 1 -i 0 -a 1 -x {0.0 4.0 0 ------- null}
- -t 0.332 -s 2 -d 3 -p cbr -e 500 -c 1 -i 0 -a 1 -x {0.0 4.0 0 ------- null}
h -t 0.332 -s 2 -d 3 -p cbr -e 500 -c 1 -i 0 -a 1 -x {0.0 4.0 -1 ------- null}
+ -t 0.335 -s 0 -d 2 -p cbr -e 500 -c 1 -i 7 -a 1 -x {0.0 4.0 7 ------- null}
- -t 0.335 -s 0 -d 2 -p cbr -e 500 -c 1 -i 7 -a 1 -x {0.0 4.0 7 ------- null}
h -t 0.335 -s 0 -d 2 -p cbr -e 500 -c 1 -i 7 -a 1 -x {0.0 4.0 -1 ------- null}
r -t 0.337 -s 0 -d 2 -p cbr -e 500 -c 1 -i 1 -a 1 -x {0.0 4.0 1 ------- null}
+ -t 0.337 -s 2 -d 3 -p cbr -e 500 -c 1 -i 1 -a 1 -x {0.0 4.0 1 ------- null}
- -t 0.337 -s 2 -d 3 -p cbr -e 500 -c 1 -i 1 -a 1 -x {0.0 4.0 1 ------- null}
h -t 0.337 -s 2 -d 3 -p cbr -e 500 -c 1 -i 1 -a 1 -x {0.0 4.0 -1 ------- null}
+ -t 0.34 -s 0 -d 2 -p cbr -e 500 -c 1 -i 8 -a 1 -x {0.0 4.0 8 ------- null}
- -t 0.34 -s 0 -d 2 -p cbr -e 500 -c 1 -i 8 -a 1 -x {0.0 4.0 8 ------- null}
h -t 0.34 -s 0 -d 2 -p cbr -e 500 -c 1 -i 8 -a 1 -x {0.0 4.0 -1 ------- null}
r -t 0.342 -s 0 -d 2 -p cbr -e 500 -c 1 -i 2 -a 1 -x {0.0 4.0 2 ------- null}
+ -t 0.342 -s 2 -d 3 -p cbr -e 500 -c 1 -i 2 -a 1 -x {0.0 4.0 2 ------- null}
- -t 0.342 -s 2 -d 3 -p cbr -e 500 -c 1 -i 2 -a 1 -x {0.0 4.0 2 ------- null}
h -t 0.342 -s 2 -d 3 -p cbr -e 500 -c 1 -i 2 -a 1 -x {0.0 4.0 -1 ------- null}
+ -t 0.345 -s 0 -d 2 -p cbr -e 500 -c 1 -i 9 -a 1 -x {0.0 4.0 9 ------- null}
- -t 0.345 -s 0 -d 2 -p cbr -e 500 -c 1 -i 9 -a 1 -x {0.0 4.0 9 ------- null}
h -t 0.345 -s 0 -d 2 -p cbr -e 500 -c 1 -i 9 -a 1 -x {0.0 4.0 -1 ------- null}
r -t 0.347 -s 0 -d 2 -p cbr -e 500 -c 1 -i 3 -a 1 -x {0.0 4.0 3 ------- null}
+ -t 0.347 -s 2 -d 3 -p cbr -e 500 -c 1 -i 3 -a 1 -x {0.0 4.0 3 ------- null}
- -t 0.347 -s 2 -d 3 -p cbr -e 500 -c 1 -i 3 -a 1 -x {0.0 4.0 3 ------- null}
h -t 0.347 -s 2 -d 3 -p cbr -e 500 -c 1 -i 3 -a 1 -x {0.0 4.0 -1 ------- null}
+ -t 0.35 -s 0 -d 2 -p cbr -e 500 -c 1 -i 10 -a 1 -x {0.0 4.0 10 ------- null}
- -t 0.35 -s 0 -d 2 -p cbr -e 500 -c 1 -i 10 -a 1 -x {0.0 4.0 10 ------- null}
h -t 0.35 -s 0 -d 2 -p cbr -e 500 -c 1 -i 10 -a 1 -x {0.0 4.0 -1 ------- null}
r -t 0.352 -s 0 -d 2 -p cbr -e 500 -c 1 -i 4 -a 1 -x {0.0 4.0 4 ------- null}
+ -t 0.352 -s 2 -d 3 -p cbr -e 500 -c 1 -i 4 -a 1 -x {0.0 4.0 4 ------- null}
- -t 0.352 -s 2 -d 3 -p cbr -e 500 -c 1 -i 4 -a 1 -x {0.0 4.0 4 ------- null}
h -t 0.352 -s 2 -d 3 -p cbr -e 500 -c 1 -i 4 -a 1 -x {0.0 4.0 -1 ------- null}
+ -t 0.355 -s 0 -d 2 -p cbr -e 500 -c 1 -i 11 -a 1 -x {0.0 4.0 11 ------- null}
- -t 0.355 -s 0 -d 2 -p cbr -e 500 -c 1 -i 11 -a 1 -x {0.0 4.0 11 ------- null}
h -t 0.355 -s 0 -d 2 -p cbr -e 500 -c 1 -i 11 -a 1 -x {0.0 4.0 -1 ------- null}
r -t 0.357 -s 0 -d 2 -p cbr -e 500 -c 1 -i 5 -a 1 -x {0.0 4.0 5 ------- null}
+ -t 0.357 -s 2 -d 3 -p cbr -e 500 -c 1 -i 5 -a 1 -x {0.0 4.0 5 ------- null}
- -t 0.357 -s 2 -d 3 -p cbr -e 500 -c 1 -i 5 -a 1 -x {0.0 4.0 5 ------- null}
h -t 0.357 -s 2 -d 3 -p cbr -e 500 -c 1 -i 5 -a 1 -x {0.0 4.0 -1 ------- null}
+ -t 0.36 -s 0 -d 2 -p cbr -e 500 -c 1 -i 12 -a 1 -x {0.0 4.0 12 ------- null}
- -t 0.36 -s 0 -d 2 -p cbr -e 500 -c 1 -i 12 -a 1 -x {0.0 4.0 12 ------- null}
h -t 0.36 -s 0 -d 2 -p cbr -e 500 -c 1 -i 12 -a 1 -x {0.0 4.0 -1 ------- null}
r -t 0.362 -s 0 -d 2 -p cbr -e 500 -c 1 -i 6 -a 1 -x {0.0 4.0 6 ------- null}
+ -t 0.362 -s 2 -d 3 -p cbr -e 500 -c 1 -i 6 -a 1 -x {0.0 4.0 6 ------- null}
- -t 0.362 -s 2 -d 3 -p cbr -e 500 -c 1 -i 6 -a 1 -x {0.0 4.0 6 ------- null}
h -t 0.362 -s 2 -d 3 -p cbr -e 500 -c 1 -i 6 -a 1 -x {0.0 4.0 -1 ------- null}
r -t 0.364 -s 2 -d 3 -p cbr -e 500 -c 1 -i 0 -a 1 -x {0.0 4.0 0 ------- null}
+ -t 0.364 -s 3 -d 4 -p cbr -e 500 -c 1 -i 0 -a 1 -x {0.0 4.0 0 ------- null}
- -t 0.364 -s 3 -d 4 -p cbr -e 500 -c 1 -i 0 -a 1 -x {0.0 4.0 0 ------- null}
h -t 0.364 -s 3 -d 4 -p cbr -e 500 -c 1 -i 0 -a 1 -x {0.0 4.0 -1 ------- null}
+ -t 0.365 -s 0 -d 2 -p cbr -e 500 -c 1 -i 13 -a 1 -x {0.0 4.0 13 ------- null}
- -t 0.365 -s 0 -d 2 -p cbr -e 500 -c 1 -i 13 -a 1 -x {0.0 4.0 13 ------- null}
h -t 0.365 -s 0 -d 2 -p cbr -e 500 -c 1 -i 13 -a 1 -x {0.0 4.0 -1 ------- null}
r -t 0.367 -s 0 -d 2 -p cbr -e 500 -c 1 -i 7 -a 1 -x {0.0 4.0 7 ------- null}
+ -t 0.367 -s 2 -d 3 -p cbr -e 500 -c 1 -i 7 -a 1 -x {0.0 4.0 7 ------- null}
- -t 0.367 -s 2 -d 3 -p cbr -e 500 -c 1 -i 7 -a 1 -x {0.0 4.0 7 ------- null}
h -t 0.367 -s 2 -d 3 -p cbr -e 500 -c 1 -i 7 -a 1 -x {0.0 4.0 -1 ------- null}
r -t 0.369 -s 2 -d 3 -p cbr -e 500 -c 1 -i 1 -a 1 -x {0.0 4.0 1 ------- null}
+ -t 0.369 -s 3 -d 4 -p cbr -e 500 -c 1 -i 1 -a 1 -x {0.0 4.0 1 ------- null}
- -t 0.369 -s 3 -d 4 -p cbr -e 500 -c 1 -i 1 -a 1 -x {0.0 4.0 1 ------- null}
h -t 0.369 -s 3 -d 4 -p cbr -e 500 -c 1 -i 1 -a 1 -x {0.0 4.0 -1 ------- null}
+ -t 0.37 -s 0 -d 2 -p cbr -e 500 -c 1 -i 14 -a 1 -x {0.0 4.0 14 ------- null}
- -t 0.37 -s 0 -d 2 -p cbr -e 500 -c 1 -i 14 -a 1 -x {0.0 4.0 14 ------- null}
h -t 0.37 -s 0 -d 2 -p cbr -e 500 -c 1 -i 14 -a 1 -x {0.0 4.0 -1 ------- null}
r -t 0.372 -s 0 -d 2 -p cbr -e 500 -c 1 -i 8 -a 1 -x {0.0 4.0 8 ------- null}
+ -t 0.372 -s 2 -d 3 -p cbr -e 500 -c 1 -i 8 -a 1 -x {0.0 4.0 8 ------- null}
- -t 0.372 -s 2 -d 3 -p cbr -e 500 -c 1 -i 8 -a 1 -x {0.0 4.0 8 ------- null}
h -t 0.372 -s 2 -d 3 -p cbr -e 500 -c 1 -i 8 -a 1 -x {0.0 4.0 -1 ------- null}
r -t 0.374 -s 2 -d 3 -p cbr -e 500 -c 1 -i 2 -a 1 -x {0.0 4.0 2 ------- null}
+ -t 0.374 -s 3 -d 4 -p cbr -e 500 -c 1 -i 2 -a 1 -x {0.0 4.0 2 ------- null}
- -t 0.374 -s 3 -d 4 -p cbr -e 500 -c 1 -i 2 -a 1 -x {0.0 4.0 2 ------- null}
h -t 0.374 -s 3 -d 4 -p cbr -e 500 -c 1 -i 2 -a 1 -x {0.0 4.0 -1 ------- null}
+ -t 0.375 -s 0 -d 2 -p cbr -e 500 -c 1 -i 15 -a 1 -x {0.0 4.0 15 ------- null}
- -t 0.375 -s 0 -d 2 -p cbr -e 500 -c 1 -i 15 -a 1 -x {0.0 4.0 15 ------- null}
h -t 0.375 -s 0 -d 2 -p cbr -e 500 -c 1 -i 15 -a 1 -x {0.0 4.0 -1 ------- null}
r -t 0.377 -s 0 -d 2 -p cbr -e 500 -c 1 -i 9 -a 1 -x {0.0 4.0 9 ------- null}
+ -t 0.377 -s 2 -d 3 -p cbr -e 500 -c 1 -i 9 -a 1 -x {0.0 4.0 9 ------- null}
- -t 0.377 -s 2 -d 3 -p cbr -e 500 -c 1 -i 9 -a 1 -x {0.0 4.0 9 ------- null}
h -t 0.377 -s 2 -d 3 -p cbr -e 500 -c 1 -i 9 -a 1 -x {0.0 4.0 -1 ------- null}
r -t 0.379 -s 2 -d 3 -p cbr -e 500 -c 1 -i 3 -a 1 -x {0.0 4.0 3 ------- null}
+ -t 0.379 -s 3 -d 4 -p cbr -e 500 -c 1 -i 3 -a 1 -x {0.0 4.0 3 ------- null}
- -t 0.379 -s 3 -d 4 -p cbr -e 500 -c 1 -i 3 -a 1 -x {0.0 4.0 3 ------- null}
h -t 0.379 -s 3 -d 4 -p cbr -e 500 -c 1 -i 3 -a 1 -x {0.0 4.0 -1 ------- null}
+ -t 0.38 -s 0 -d 2 -p cbr -e 500 -c 1 -i 16 -a 1 -x {0.0 4.0 16 ------- null}
- -t 0.38 -s 0 -d 2 -p cbr -e 500 -c 1 -i 16 -a 1 -x {0.0 4.0 16 ------- null}
h -t 0.38 -s 0 -d 2 -p cbr -e 500 -c 1 -i 16 -a 1 -x {0.0 4.0 -1 ------- null}
r -t 0.382 -s 0 -d 2 -p cbr -e 500 -c 1 -i 10 -a 1 -x {0.0 4.0 10 ------- null}
+ -t 0.382 -s 2 -d 3 -p cbr -e 500 -c 1 -i 10 -a 1 -x {0.0 4.0 10 ------- null}
- -t 0.382 -s 2 -d 3 -p cbr -e 500 -c 1 -i 10 -a 1 -x {0.0 4.0 10 ------- null}
h -t 0.382 -s 2 -d 3 -p cbr -e 500 -c 1 -i 10 -a 1 -x {0.0 4.0 -1 ------- null}
r -t 0.384 -s 2 -d 3 -p cbr -e 500 -c 1 -i 4 -a 1 -x {0.0 4.0 4 ------- null}
+ -t 0.384 -s 3 -d 4 -p cbr -e 500 -c 1 -i 4 -a 1 -x {0.0 4.0 4 ------- null}
- -t 0.384 -s 3 -d 4 -p cbr -e 500 -c 1 -i 4 -a 1 -x {0.0 4.0 4 ------- null}
h -t 0.384 -s 3 -d 4 -p cbr -e 500 -c 1 -i 4 -a 1 -x {0.0 4.0 -1 ------- null}
+ -t 0.385 -s 0 -d 2 -p cbr -e 500 -c 1 -i 17 -a 1 -x {0.0 4.0 17 ------- null}
- -t 0.385 -s 0 -d 2 -p cbr -e 500 -c 1 -i 17 -a 1 -x {0.0 4.0 17 ------- null}
h -t 0.385 -s 0 -d 2 -p cbr -e 500 -c 1 -i 17 -a 1 -x {0.0 4.0 -1 ------- null}
r -t 0.387 -s 0 -d 2 -p cbr -e 500 -c 1 -i 11 -a 1 -x {0.0 4.0 11 ------- null}
+ -t 0.387 -s 2 -d 3 -p cbr -e 500 -c 1 -i 11 -a 1 -x {0.0 4.0 11 ------- null}
- -t 0.387 -s 2 -d 3 -p cbr -e 500 -c 1 -i 11 -a 1 -x {0.0 4.0 11 ------- null}
h -t 0.387 -s 2 -d 3 -p cbr -e 500 -c 1 -i 11 -a 1 -x {0.0 4.0 -1 ------- null}
r -t 0.389 -s 2 -d 3 -p cbr -e 500 -c 1 -i 5 -a 1 -x {0.0 4.0 5 ------- null}
+ -t 0.389 -s 3 -d 4 -p cbr -e 500 -c 1 -i 5 -a 1 -x {0.0 4.0 5 ------- null}
- -t 0.389 -s 3 -d 4 -p cbr -e 500 -c 1 -i 5 -a 1 -x {0.0 4.0 5 ------- null}
h -t 0.389 -s 3 -d 4 -p cbr -e 500 -c 1 -i 5 -a 1 -x {0.0 4.0 -1 ------- null}
+ -t 0.39 -s 0 -d 2 -p cbr -e 500 -c 1 -i 18 -a 1 -x {0.0 4.0 18 ------- null}
- -t 0.39 -s 0 -d 2 -p cbr -e 500 -c 1 -i 18 -a 1 -x {0.0 4.0 18 ------- null}
h -t 0.39 -s 0 -d 2 -p cbr -e 500 -c 1 -i 18 -a 1 -x {0.0 4.0 -1 ------- null}
r -t 0.392 -s 0 -d 2 -p cbr -e 500 -c 1 -i 12 -a 1 -x {0.0 4.0 12 ------- null}
+ -t 0.392 -s 2 -d 3 -p cbr -e 500 -c 1 -i 12 -a 1 -x {0.0 4.0 12 ------- null}
- -t 0.392 -s 2 -d 3 -p cbr -e 500 -c 1 -i 12 -a 1 -x {0.0 4.0 12 ------- null}
h -t 0.392 -s 2 -d 3 -p cbr -e 500 -c 1 -i 12 -a 1 -x {0.0 4.0 -1 ------- null}
r -t 0.394 -s 2 -d 3 -p cbr -e 500 -c 1 -i 6 -a 1 -x {0.0 4.0 6 ------- null}
+ -t 0.394 -s 3 -d 4 -p cbr -e 500 -c 1 -i 6 -a 1 -x {0.0 4.0 6 ------- null}
- -t 0.394 -s 3 -d 4 -p cbr -e 500 -c 1 -i 6 -a 1 -x {0.0 4.0 6 ------- null}
h -t 0.394 -s 3 -d 4 -p cbr -e 500 -c 1 -i 6 -a 1 -x {0.0 4.0 -1 ------- null}
+ -t 0.395 -s 0 -d 2 -p cbr -e 500 -c 1 -i 19 -a 1 -x {0.0 4.0 19 ------- null}
- -t 0.395 -s 0 -d 2 -p cbr -e 500 -c 1 -i 19 -a 1 -x {0.0 4.0 19 ------- null}
h -t 0.395 -s 0 -d 2 -p cbr -e 500 -c 1 -i 19 -a 1 -x {0.0 4.0 -1 ------- null}
r -t 0.396 -s 3 -d 4 -p cbr -e 500 -c 1 -i 0 -a 1 -x {0.0 4.0 0 ------- null}
r -t 0.397 -s 0 -d 2 -p cbr -e 500 -c 1 -i 13 -a 1 -x {0.0 4.0 13 ------- null}
+ -t 0.397 -s 2 -d 3 -p cbr -e 500 -c 1 -i 13 -a 1 -x {0.0 4.0 13 ------- null}
- -t 0.397 -s 2 -d 3 -p cbr -e 500 -c 1 -i 13 -a 1 -x {0.0 4.0 13 ------- null}
h -t 0.397 -s 2 -d 3 -p cbr -e 500 -c 1 -i 13 -a 1 -x {0.0 4.0 -1 ------- null}
r -t 0.399 -s 2 -d 3 -p cbr -e 500 -c 1 -i 7 -a 1 -x {0.0 4.0 7 ------- null}
+ -t 0.399 -s 3 -d 4 -p cbr -e 500 -c 1 -i 7 -a 1 -x {0.0 4.0 7 ------- null}
- -t 0.399 -s 3 -d 4 -p cbr -e 500 -c 1 -i 7 -a 1 -x {0.0 4.0 7 ------- null}
h -t 0.399 -s 3 -d 4 -p cbr -e 500 -c 1 -i 7 -a 1 -x {0.0 4.0 -1 ------- null}
+ -t 0.4 -s 0 -d 2 -p cbr -e 500 -c 1 -i 20 -a 1 -x {0.0 4.0 20 ------- null}
- -t 0.4 -s 0 -d 2 -p cbr -e 500 -c 1 -i 20 -a 1 -x {0.0 4.0 20 ------- null}
h -t 0.4 -s 0 -d 2 -p cbr -e 500 -c 1 -i 20 -a 1 -x {0.0 4.0 -1 ------- null}
r -t 0.401 -s 3 -d 4 -p cbr -e 500 -c 1 -i 1 -a 1 -x {0.0 4.0 1 ------- null}
r -t 0.402 -s 0 -d 2 -p cbr -e 500 -c 1 -i 14 -a 1 -x {0.0 4.0 14 ------- null}
+ -t 0.402 -s 2 -d 3 -p cbr -e 500 -c 1 -i 14 -a 1 -x {0.0 4.0 14 ------- null}
- -t 0.402 -s 2 -d 3 -p cbr -e 500 -c 1 -i 14 -a 1 -x {0.0 4.0 14 ------- null}
h -t 0.402 -s 2 -d 3 -p cbr -e 500 -c 1 -i 14 -a 1 -x {0.0 4.0 -1 ------- null}
r -t 0.404 -s 2 -d 3 -p cbr -e 500 -c 1 -i 8 -a 1 -x {0.0 4.0 8 ------- null}
+ -t 0.404 -s 3 -d 4 -p cbr -e 500 -c 1 -i 8 -a 1 -x {0.0 4.0 8 ------- null}
- -t 0.404 -s 3 -d 4 -p cbr -e 500 -c 1 -i 8 -a 1 -x {0.0 4.0 8 ------- null}
h -t 0.404 -s 3 -d 4 -p cbr -e 500 -c 1 -i 8 -a 1 -x {0.0 4.0 -1 ------- null}
+ -t 0.405 -s 0 -d 2 -p cbr -e 500 -c 1 -i 21 -a 1 -x {0.0 4.0 21 ------- null}
- -t 0.405 -s 0 -d 2 -p cbr -e 500 -c 1 -i 21 -a 1 -x {0.0 4.0 21 ------- null}
h -t 0.405 -s 0 -d 2 -p cbr -e 500 -c 1 -i 21 -a 1 -x {0.0 4.0 -1 ------- null}
r -t 0.406 -s 3 -d 4 -p cbr -e 500 -c 1 -i 2 -a 1 -x {0.0 4.0 2 ------- null}
r -t 0.407 -s 0 -d 2 -p cbr -e 500 -c 1 -i 15 -a 1 -x {0.0 4.0 15 ------- null}
+ -t 0.407 -s 2 -d 3 -p cbr -e 500 -c 1 -i 15 -a 1 -x {0.0 4.0 15 ------- null}
- -t 0.407 -s 2 -d 3 -p cbr -e 500 -c 1 -i 15 -a 1 -x {0.0 4.0 15 ------- null}
h -t 0.407 -s 2 -d 3 -p cbr -e 500 -c 1 -i 15 -a 1 -x {0.0 4.0 -1 ------- null}
r -t 0.409 -s 2 -d 3 -p cbr -e 500 -c 1 -i 9 -a 1 -x {0.0 4.0 9 ------- null}
+ -t 0.409 -s 3 -d 4 -p cbr -e 500 -c 1 -i 9 -a 1 -x {0.0 4.0 9 ------- null}
- -t 0.409 -s 3 -d 4 -p cbr -e 500 -c 1 -i 9 -a 1 -x {0.0 4.0 9 ------- null}
h -t 0.409 -s 3 -d 4 -p cbr -e 500 -c 1 -i 9 -a 1 -x {0.0 4.0 -1 ------- null}
+ -t 0.41 -s 0 -d 2 -p cbr -e 500 -c 1 -i 22 -a 1 -x {0.0 4.0 22 ------- null}
- -t 0.41 -s 0 -d 2 -p cbr -e 500 -c 1 -i 22 -a 1 -x {0.0 4.0 22 ------- null}
h -t 0.41 -s 0 -d 2 -p cbr -e 500 -c 1 -i 22 -a 1 -x {0.0 4.0 -1 ------- null}
r -t 0.411 -s 3 -d 4 -p cbr -e 500 -c 1 -i 3 -a 1 -x {0.0 4.0 3 ------- null}
r -t 0.412 -s 0 -d 2 -p cbr -e 500 -c 1 -i 16 -a 1 -x {0.0 4.0 16 ------- null}
+ -t 0.412 -s 2 -d 3 -p cbr -e 500 -c 1 -i 16 -a 1 -x {0.0 4.0 16 ------- null}
- -t 0.412 -s 2 -d 3 -p cbr -e 500 -c 1 -i 16 -a 1 -x {0.0 4.0 16 ------- null}
h -t 0.412 -s 2 -d 3 -p cbr -e 500 -c 1 -i 16 -a 1 -x {0.0 4.0 -1 ------- null}
r -t 0.414 -s 2 -d 3 -p cbr -e 500 -c 1 -i 10 -a 1 -x {0.0 4.0 10 ------- null}
+ -t 0.414 -s 3 -d 4 -p cbr -e 500 -c 1 -i 10 -a 1 -x {0.0 4.0 10 ------- null}
- -t 0.414 -s 3 -d 4 -p cbr -e 500 -c 1 -i 10 -a 1 -x {0.0 4.0 10 ------- null}
h -t 0.414 -s 3 -d 4 -p cbr -e 500 -c 1 -i 10 -a 1 -x {0.0 4.0 -1 ------- null}
+ -t 0.415 -s 0 -d 2 -p cbr -e 500 -c 1 -i 23 -a 1 -x {0.0 4.0 23 ------- null}
- -t 0.415 -s 0 -d 2 -p cbr -e 500 -c 1 -i 23 -a 1 -x {0.0 4.0 23 ------- null}
h -t 0.415 -s 0 -d 2 -p cbr -e 500 -c 1 -i 23 -a 1 -x {0.0 4.0 -1 ------- null}
r -t 0.416 -s 3 -d 4 -p cbr -e 500 -c 1 -i 4 -a 1 -x {0.0 4.0 4 ------- null}
r -t 0.417 -s 0 -d 2 -p cbr -e 500 -c 1 -i 17 -a 1 -x {0.0 4.0 17 ------- null}
+ -t 0.417 -s 2 -d 3 -p cbr -e 500 -c 1 -i 17 -a 1 -x {0.0 4.0 17 ------- null}
- -t 0.417 -s 2 -d 3 -p cbr -e 500 -c 1 -i 17 -a 1 -x {0.0 4.0 17 ------- null}
h -t 0.417 -s 2 -d 3 -p cbr -e 500 -c 1 -i 17 -a 1 -x {0.0 4.0 -1 ------- null}
r -t 0.419 -s 2 -d 3 -p cbr -e 500 -c 1 -i 11 -a 1 -x {0.0 4.0 11 ------- null}
+ -t 0.419 -s 3 -d 4 -p cbr -e 500 -c 1 -i 11 -a 1 -x {0.0 4.0 11 ------- null}
- -t 0.419 -s 3 -d 4 -p cbr -e 500 -c 1 -i 11 -a 1 -x {0.0 4.0 11 ------- null}
h -t 0.419 -s 3 -d 4 -p cbr -e 500 -c 1 -i 11 -a 1 -x {0.0 4.0 -1 ------- null}
+ -t 0.42 -s 0 -d 2 -p cbr -e 500 -c 1 -i 24 -a 1 -x {0.0 4.0 24 ------- null}
- -t 0.42 -s 0 -d 2 -p cbr -e 500 -c 1 -i 24 -a 1 -x {0.0 4.0 24 ------- null}
h -t 0.42 -s 0 -d 2 -p cbr -e 500 -c 1 -i 24 -a 1 -x {0.0 4.0 -1 ------- null}
r -t 0.421 -s 3 -d 4 -p cbr -e 500 -c 1 -i 5 -a 1 -x {0.0 4.0 5 ------- null}
r -t 0.422 -s 0 -d 2 -p cbr -e 500 -c 1 -i 18 -a 1 -x {0.0 4.0 18 ------- null}
+ -t 0.422 -s 2 -d 3 -p cbr -e 500 -c 1 -i 18 -a 1 -x {0.0 4.0 18 ------- null}
- -t 0.422 -s 2 -d 3 -p cbr -e 500 -c 1 -i 18 -a 1 -x {0.0 4.0 18 ------- null}
h -t 0.422 -s 2 -d 3 -p cbr -e 500 -c 1 -i 18 -a 1 -x {0.0 4.0 -1 ------- null}
r -t 0.424 -s 2 -d 3 -p cbr -e 500 -c 1 -i 12 -a 1 -x {0.0 4.0 12 ------- null}
+ -t 0.424 -s 3 -d 4 -p cbr -e 500 -c 1 -i 12 -a 1 -x {0.0 4.0 12 ------- null}
- -t 0.424 -s 3 -d 4 -p cbr -e 500 -c 1 -i 12 -a 1 -x {0.0 4.0 12 ------- null}
h -t 0.424 -s 3 -d 4 -p cbr -e 500 -c 1 -i 12 -a 1 -x {0.0 4.0 -1 ------- null}
+ -t 0.425 -s 0 -d 2 -p cbr -e 500 -c 1 -i 25 -a 1 -x {0.0 4.0 25 ------- null}
- -t 0.425 -s 0 -d 2 -p cbr -e 500 -c 1 -i 25 -a 1 -x {0.0 4.0 25 ------- null}
h -t 0.425 -s 0 -d 2 -p cbr -e 500 -c 1 -i 25 -a 1 -x {0.0 4.0 -1 ------- null}
r -t 0.426 -s 3 -d 4 -p cbr -e 500 -c 1 -i 6 -a 1 -x {0.0 4.0 6 ------- null}
r -t 0.427 -s 0 -d 2 -p cbr -e 500 -c 1 -i 19 -a 1 -x {0.0 4.0 19 ------- null}
+ -t 0.427 -s 2 -d 3 -p cbr -e 500 -c 1 -i 19 -a 1 -x {0.0 4.0 19 ------- null}
- -t 0.427 -s 2 -d 3 -p cbr -e 500 -c 1 -i 19 -a 1 -x {0.0 4.0 19 ------- null}
h -t 0.427 -s 2 -d 3 -p cbr -e 500 -c 1 -i 19 -a 1 -x {0.0 4.0 -1 ------- null}
r -t 0.429 -s 2 -d 3 -p cbr -e 500 -c 1 -i 13 -a 1 -x {0.0 4.0 13 ------- null}
+ -t 0.429 -s 3 -d 4 -p cbr -e 500 -c 1 -i 13 -a 1 -x {0.0 4.0 13 ------- null}
- -t 0.429 -s 3 -d 4 -p cbr -e 500 -c 1 -i 13 -a 1 -x {0.0 4.0 13 ------- null}
h -t 0.429 -s 3 -d 4 -p cbr -e 500 -c 1 -i 13 -a 1 -x {0.0 4.0 -1 ------- null}
+ -t 0.43 -s 0 -d 2 -p cbr -e 500 -c 1 -i 26 -a 1 -x {0.0 4.0 26 ------- null}
- -t 0.43 -s 0 -d 2 -p cbr -e 500 -c 1 -i 26 -a 1 -x {0.0 4.0 26 ------- null}
h -t 0.43 -s 0 -d 2 -p cbr -e 500 -c 1 -i 26 -a 1 -x {0.0 4.0 -1 ------- null}
r -t 0.431 -s 3 -d 4 -p cbr -e 500 -c 1 -i 7 -a 1 -x {0.0 4.0 7 ------- null}
r -t 0.432 -s 0 -d 2 -p cbr -e 500 -c 1 -i 20 -a 1 -x {0.0 4.0 20 ------- null}
+ -t 0.432 -s 2 -d 3 -p cbr -e 500 -c 1 -i 20 -a 1 -x {0.0 4.0 20 ------- null}
- -t 0.432 -s 2 -d 3 -p cbr -e 500 -c 1 -i 20 -a 1 -x {0.0 4.0 20 ------- null}
h -t 0.432 -s 2 -d 3 -p cbr -e 500 -c 1 -i 20 -a 1 -x {0.0 4.0 -1 ------- null}
r -t 0.434 -s 2 -d 3 -p cbr -e 500 -c 1 -i 14 -a 1 -x {0.0 4.0 14 ------- null}
+ -t 0.434 -s 3 -d 4 -p cbr -e 500 -c 1 -i 14 -a 1 -x {0.0 4.0 14 ------- null}
- -t 0.434 -s 3 -d 4 -p cbr -e 500 -c 1 -i 14 -a 1 -x {0.0 4.0 14 ------- null}
h -t 0.434 -s 3 -d 4 -p cbr -e 500 -c 1 -i 14 -a 1 -x {0.0 4.0 -1 ------- null}
+ -t 0.435 -s 0 -d 2 -p cbr -e 500 -c 1 -i 27 -a 1 -x {0.0 4.0 27 ------- null}
- -t 0.435 -s 0 -d 2 -p cbr -e 500 -c 1 -i 27 -a 1 -x {0.0 4.0 27 ------- null}
h -t 0.435 -s 0 -d 2 -p cbr -e 500 -c 1 -i 27 -a 1 -x {0.0 4.0 -1 ------- null}
r -t 0.436 -s 3 -d 4 -p cbr -e 500 -c 1 -i 8 -a 1 -x {0.0 4.0 8 ------- null}
r -t 0.437 -s 0 -d 2 -p cbr -e 500 -c 1 -i 21 -a 1 -x {0.0 4.0 21 ------- null}
+ -t 0.437 -s 2 -d 3 -p cbr -e 500 -c 1 -i 21 -a 1 -x {0.0 4.0 21 ------- null}
- -t 0.437 -s 2 -d 3 -p cbr -e 500 -c 1 -i 21 -a 1 -x {0.0 4.0 21 ------- null}
h -t 0.437 -s 2 -d 3 -p cbr -e 500 -c 1 -i 21 -a 1 -x {0.0 4.0 -1 ------- null}
r -t 0.439 -s 2 -d 3 -p cbr -e 500 -c 1 -i 15 -a 1 -x {0.0 4.0 15 ------- null}
+ -t 0.439 -s 3 -d 4 -p cbr -e 500 -c 1 -i 15 -a 1 -x {0.0 4.0 15 ------- null}
- -t 0.439 -s 3 -d 4 -p cbr -e 500 -c 1 -i 15 -a 1 -x {0.0 4.0 15 ------- null}
h -t 0.439 -s 3 -d 4 -p cbr -e 500 -c 1 -i 15 -a 1 -x {0.0 4.0 -1 ------- null}
+ -t 0.44 -s 0 -d 2 -p cbr -e 500 -c 1 -i 28 -a 1 -x {0.0 4.0 28 ------- null}
- -t 0.44 -s 0 -d 2 -p cbr -e 500 -c 1 -i 28 -a 1 -x {0.0 4.0 28 ------- null}
h -t 0.44 -s 0 -d 2 -p cbr -e 500 -c 1 -i 28 -a 1 -x {0.0 4.0 -1 ------- null}
r -t 0.441 -s 3 -d 4 -p cbr -e 500 -c 1 -i 9 -a 1 -x {0.0 4.0 9 ------- null}
r -t 0.442 -s 0 -d 2 -p cbr -e 500 -c 1 -i 22 -a 1 -x {0.0 4.0 22 ------- null}
+ -t 0.442 -s 2 -d 3 -p cbr -e 500 -c 1 -i 22 -a 1 -x {0.0 4.0 22 ------- null}
- -t 0.442 -s 2 -d 3 -p cbr -e 500 -c 1 -i 22 -a 1 -x {0.0 4.0 22 ------- null}
h -t 0.442 -s 2 -d 3 -p cbr -e 500 -c 1 -i 22 -a 1 -x {0.0 4.0 -1 ------- null}
r -t 0.444 -s 2 -d 3 -p cbr -e 500 -c 1 -i 16 -a 1 -x {0.0 4.0 16 ------- null}
+ -t 0.444 -s 3 -d 4 -p cbr -e 500 -c 1 -i 16 -a 1 -x {0.0 4.0 16 ------- null}
- -t 0.444 -s 3 -d 4 -p cbr -e 500 -c 1 -i 16 -a 1 -x {0.0 4.0 16 ------- null}
h -t 0.444 -s 3 -d 4 -p cbr -e 500 -c 1 -i 16 -a 1 -x {0.0 4.0 -1 ------- null}
+ -t 0.445 -s 0 -d 2 -p cbr -e 500 -c 1 -i 29 -a 1 -x {0.0 4.0 29 ------- null}
- -t 0.445 -s 0 -d 2 -p cbr -e 500 -c 1 -i 29 -a 1 -x {0.0 4.0 29 ------- null}
h -t 0.445 -s 0 -d 2 -p cbr -e 500 -c 1 -i 29 -a 1 -x {0.0 4.0 -1 ------- null}
r -t 0.446 -s 3 -d 4 -p cbr -e 500 -c 1 -i 10 -a 1 -x {0.0 4.0 10 ------- null}
r -t 0.447 -s 0 -d 2 -p cbr -e 500 -c 1 -i 23 -a 1 -x {0.0 4.0 23 ------- null}
+ -t 0.447 -s 2 -d 3 -p cbr -e 500 -c 1 -i 23 -a 1 -x {0.0 4.0 23 ------- null}
- -t 0.447 -s 2 -d 3 -p cbr -e 500 -c 1 -i 23 -a 1 -x {0.0 4.0 23 ------- null}
h -t 0.447 -s 2 -d 3 -p cbr -e 500 -c 1 -i 23 -a 1 -x {0.0 4.0 -1 ------- null}
r -t 0.449 -s 2 -d 3 -p cbr -e 500 -c 1 -i 17 -a 1 -x {0.0 4.0 17 ------- null}
+ -t 0.449 -s 3 -d 4 -p cbr -e 500 -c 1 -i 17 -a 1 -x {0.0 4.0 17 ------- null}
- -t 0.449 -s 3 -d 4 -p cbr -e 500 -c 1 -i 17 -a 1 -x {0.0 4.0 17 ------- null}
h -t 0.449 -s 3 -d 4 -p cbr -e 500 -c 1 -i 17 -a 1 -x {0.0 4.0 -1 ------- null}
+ -t 0.45 -s 0 -d 2 -p cbr -e 500 -c 1 -i 30 -a 1 -x {0.0 4.0 30 ------- null}
- -t 0.45 -s 0 -d 2 -p cbr -e 500 -c 1 -i 30 -a 1 -x {0.0 4.0 30 ------- null}
h -t 0.45 -s 0 -d 2 -p cbr -e 500 -c 1 -i 30 -a 1 -x {0.0 4.0 -1 ------- null}
r -t 0.451 -s 3 -d 4 -p cbr -e 500 -c 1 -i 11 -a 1 -x {0.0 4.0 11 ------- null}
r -t 0.452 -s 0 -d 2 -p cbr -e 500 -c 1 -i 24 -a 1 -x {0.0 4.0 24 ------- null}
+ -t 0.452 -s 2 -d 3 -p cbr -e 500 -c 1 -i 24 -a 1 -x {0.0 4.0 24 ------- null}
- -t 0.452 -s 2 -d 3 -p cbr -e 500 -c 1 -i 24 -a 1 -x {0.0 4.0 24 ------- null}
h -t 0.452 -s 2 -d 3 -p cbr -e 500 -c 1 -i 24 -a 1 -x {0.0 4.0 -1 ------- null}
r -t 0.454 -s 2 -d 3 -p cbr -e 500 -c 1 -i 18 -a 1 -x {0.0 4.0 18 ------- null}
+ -t 0.454 -s 3 -d 4 -p cbr -e 500 -c 1 -i 18 -a 1 -x {0.0 4.0 18 ------- null}
- -t 0.454 -s 3 -d 4 -p cbr -e 500 -c 1 -i 18 -a 1 -x {0.0 4.0 18 ------- null}
h -t 0.454 -s 3 -d 4 -p cbr -e 500 -c 1 -i 18 -a 1 -x {0.0 4.0 -1 ------- null}
+ -t 0.455 -s 0 -d 2 -p cbr -e 500 -c 1 -i 31 -a 1 -x {0.0 4.0 31 ------- null}
- -t 0.455 -s 0 -d 2 -p cbr -e 500 -c 1 -i 31 -a 1 -x {0.0 4.0 31 ------- null}
h -t 0.455 -s 0 -d 2 -p cbr -e 500 -c 1 -i 31 -a 1 -x {0.0 4.0 -1 ------- null}
r -t 0.456 -s 3 -d 4 -p cbr -e 500 -c 1 -i 12 -a 1 -x {0.0 4.0 12 ------- null}
r -t 0.457 -s 0 -d 2 -p cbr -e 500 -c 1 -i 25 -a 1 -x {0.0 4.0 25 ------- null}
+ -t 0.457 -s 2 -d 3 -p cbr -e 500 -c 1 -i 25 -a 1 -x {0.0 4.0 25 ------- null}
- -t 0.457 -s 2 -d 3 -p cbr -e 500 -c 1 -i 25 -a 1 -x {0.0 4.0 25 ------- null}
h -t 0.457 -s 2 -d 3 -p cbr -e 500 -c 1 -i 25 -a 1 -x {0.0 4.0 -1 ------- null}
r -t 0.459 -s 2 -d 3 -p cbr -e 500 -c 1 -i 19 -a 1 -x {0.0 4.0 19 ------- null}
+ -t 0.459 -s 3 -d 4 -p cbr -e 500 -c 1 -i 19 -a 1 -x {0.0 4.0 19 ------- null}
- -t 0.459 -s 3 -d 4 -p cbr -e 500 -c 1 -i 19 -a 1 -x {0.0 4.0 19 ------- null}
h -t 0.459 -s 3 -d 4 -p cbr -e 500 -c 1 -i 19 -a 1 -x {0.0 4.0 -1 ------- null}
+ -t 0.46 -s 0 -d 2 -p cbr -e 500 -c 1 -i 32 -a 1 -x {0.0 4.0 32 ------- null}
- -t 0.46 -s 0 -d 2 -p cbr -e 500 -c 1 -i 32 -a 1 -x {0.0 4.0 32 ------- null}
h -t 0.46 -s 0 -d 2 -p cbr -e 500 -c 1 -i 32 -a 1 -x {0.0 4.0 -1 ------- null}
r -t 0.461 -s 3 -d 4 -p cbr -e 500 -c 1 -i 13 -a 1 -x {0.0 4.0 13 ------- null}
r -t 0.462 -s 0 -d 2 -p cbr -e 500 -c 1 -i 26 -a 1 -x {0.0 4.0 26 ------- null}
+ -t 0.462 -s 2 -d 3 -p cbr -e 500 -c 1 -i 26 -a 1 -x {0.0 4.0 26 ------- null}
- -t 0.462 -s 2 -d 3 -p cbr -e 500 -c 1 -i 26 -a 1 -x {0.0 4.0 26 ------- null}
h -t 0.462 -s 2 -d 3 -p cbr -e 500 -c 1 -i 26 -a 1 -x {0.0 4.0 -1 ------- null}
r -t 0.464 -s 2 -d 3 -p cbr -e 500 -c 1 -i 20 -a 1 -x {0.0 4.0 20 ------- null}
+ -t 0.464 -s 3 -d 4 -p cbr -e 500 -c 1 -i 20 -a 1 -x {0.0 4.0 20 ------- null}
- -t 0.464 -s 3 -d 4 -p cbr -e 500 -c 1 -i 20 -a 1 -x {0.0 4.0 20 ------- null}
h -t 0.464 -s 3 -d 4 -p cbr -e 500 -c 1 -i 20 -a 1 -x {0.0 4.0 -1 ------- null}
+ -t 0.465 -s 0 -d 2 -p cbr -e 500 -c 1 -i 33 -a 1 -x {0.0 4.0 33 ------- null}
- -t 0.465 -s 0 -d 2 -p cbr -e 500 -c 1 -i 33 -a 1 -x {0.0 4.0 33 ------- null}
h -t 0.465 -s 0 -d 2 -p cbr -e 500 -c 1 -i 33 -a 1 -x {0.0 4.0 -1 ------- null}
r -t 0.466 -s 3 -d 4 -p cbr -e 500 -c 1 -i 14 -a 1 -x {0.0 4.0 14 ------- null}
r -t 0.467 -s 0 -d 2 -p cbr -e 500 -c 1 -i 27 -a 1 -x {0.0 4.0 27 ------- null}
+ -t 0.467 -s 2 -d 3 -p cbr -e 500 -c 1 -i 27 -a 1 -x {0.0 4.0 27 ------- null}
- -t 0.467 -s 2 -d 3 -p cbr -e 500 -c 1 -i 27 -a 1 -x {0.0 4.0 27 ------- null}
h -t 0.467 -s 2 -d 3 -p cbr -e 500 -c 1 -i 27 -a 1 -x {0.0 4.0 -1 ------- null}
r -t 0.469 -s 2 -d 3 -p cbr -e 500 -c 1 -i 21 -a 1 -x {0.0 4.0 21 ------- null}
+ -t 0.469 -s 3 -d 4 -p cbr -e 500 -c 1 -i 21 -a 1 -x {0.0 4.0 21 ------- null}
- -t 0.469 -s 3 -d 4 -p cbr -e 500 -c 1 -i 21 -a 1 -x {0.0 4.0 21 ------- null}
h -t 0.469 -s 3 -d 4 -p cbr -e 500 -c 1 -i 21 -a 1 -x {0.0 4.0 -1 ------- null}
+ -t 0.47 -s 0 -d 2 -p cbr -e 500 -c 1 -i 34 -a 1 -x {0.0 4.0 34 ------- null}
- -t 0.47 -s 0 -d 2 -p cbr -e 500 -c 1 -i 34 -a 1 -x {0.0 4.0 34 ------- null}
h -t 0.47 -s 0 -d 2 -p cbr -e 500 -c 1 -i 34 -a 1 -x {0.0 4.0 -1 ------- null}
r -t 0.471 -s 3 -d 4 -p cbr -e 500 -c 1 -i 15 -a 1 -x {0.0 4.0 15 ------- null}
r -t 0.472 -s 0 -d 2 -p cbr -e 500 -c 1 -i 28 -a 1 -x {0.0 4.0 28 ------- null}
+ -t 0.472 -s 2 -d 3 -p cbr -e 500 -c 1 -i 28 -a 1 -x {0.0 4.0 28 ------- null}
- -t 0.472 -s 2 -d 3 -p cbr -e 500 -c 1 -i 28 -a 1 -x {0.0 4.0 28 ------- null}
h -t 0.472 -s 2 -d 3 -p cbr -e 500 -c 1 -i 28 -a 1 -x {0.0 4.0 -1 ------- null}
r -t 0.474 -s 2 -d 3 -p cbr -e 500 -c 1 -i 22 -a 1 -x {0.0 4.0 22 ------- null}
+ -t 0.474 -s 3 -d 4 -p cbr -e 500 -c 1 -i 22 -a 1 -x {0.0 4.0 22 ------- null}
- -t 0.474 -s 3 -d 4 -p cbr -e 500 -c 1 -i 22 -a 1 -x {0.0 4.0 22 ------- null}
h -t 0.474 -s 3 -d 4 -p cbr -e 500 -c 1 -i 22 -a 1 -x {0.0 4.0 -1 ------- null}
+ -t 0.475 -s 0 -d 2 -p cbr -e 500 -c 1 -i 35 -a 1 -x {0.0 4.0 35 ------- null}
- -t 0.475 -s 0 -d 2 -p cbr -e 500 -c 1 -i 35 -a 1 -x {0.0 4.0 35 ------- null}
h -t 0.475 -s 0 -d 2 -p cbr -e 500 -c 1 -i 35 -a 1 -x {0.0 4.0 -1 ------- null}
r -t 0.476 -s 3 -d 4 -p cbr -e 500 -c 1 -i 16 -a 1 -x {0.0 4.0 16 ------- null}
r -t 0.477 -s 0 -d 2 -p cbr -e 500 -c 1 -i 29 -a 1 -x {0.0 4.0 29 ------- null}
+ -t 0.477 -s 2 -d 3 -p cbr -e 500 -c 1 -i 29 -a 1 -x {0.0 4.0 29 ------- null}
- -t 0.477 -s 2 -d 3 -p cbr -e 500 -c 1 -i 29 -a 1 -x {0.0 4.0 29 ------- null}
h -t 0.477 -s 2 -d 3 -p cbr -e 500 -c 1 -i 29 -a 1 -x {0.0 4.0 -1 ------- null}
r -t 0.479 -s 2 -d 3 -p cbr -e 500 -c 1 -i 23 -a 1 -x {0.0 4.0 23 ------- null}
+ -t 0.479 -s 3 -d 4 -p cbr -e 500 -c 1 -i 23 -a 1 -x {0.0 4.0 23 ------- null}
- -t 0.479 -s 3 -d 4 -p cbr -e 500 -c 1 -i 23 -a 1 -x {0.0 4.0 23 ------- null}
h -t 0.479 -s 3 -d 4 -p cbr -e 500 -c 1 -i 23 -a 1 -x {0.0 4.0 -1 ------- null}
+ -t 0.48 -s 0 -d 2 -p cbr -e 500 -c 1 -i 36 -a 1 -x {0.0 4.0 36 ------- null}
- -t 0.48 -s 0 -d 2 -p cbr -e 500 -c 1 -i 36 -a 1 -x {0.0 4.0 36 ------- null}
h -t 0.48 -s 0 -d 2 -p cbr -e 500 -c 1 -i 36 -a 1 -x {0.0 4.0 -1 ------- null}
r -t 0.481 -s 3 -d 4 -p cbr -e 500 -c 1 -i 17 -a 1 -x {0.0 4.0 17 ------- null}
r -t 0.482 -s 0 -d 2 -p cbr -e 500 -c 1 -i 30 -a 1 -x {0.0 4.0 30 ------- null}
+ -t 0.482 -s 2 -d 3 -p cbr -e 500 -c 1 -i 30 -a 1 -x {0.0 4.0 30 ------- null}
- -t 0.482 -s 2 -d 3 -p cbr -e 500 -c 1 -i 30 -a 1 -x {0.0 4.0 30 ------- null}
h -t 0.482 -s 2 -d 3 -p cbr -e 500 -c 1 -i 30 -a 1 -x {0.0 4.0 -1 ------- null}
r -t 0.484 -s 2 -d 3 -p cbr -e 500 -c 1 -i 24 -a 1 -x {0.0 4.0 24 ------- null}
+ -t 0.484 -s 3 -d 4 -p cbr -e 500 -c 1 -i 24 -a 1 -x {0.0 4.0 24 ------- null}
- -t 0.484 -s 3 -d 4 -p cbr -e 500 -c 1 -i 24 -a 1 -x {0.0 4.0 24 ------- null}
h -t 0.484 -s 3 -d 4 -p cbr -e 500 -c 1 -i 24 -a 1 -x {0.0 4.0 -1 ------- null}
+ -t 0.485 -s 0 -d 2 -p cbr -e 500 -c 1 -i 37 -a 1 -x {0.0 4.0 37 ------- null}
- -t 0.485 -s 0 -d 2 -p cbr -e 500 -c 1 -i 37 -a 1 -x {0.0 4.0 37 ------- null}
h -t 0.485 -s 0 -d 2 -p cbr -e 500 -c 1 -i 37 -a 1 -x {0.0 4.0 -1 ------- null}
r -t 0.486 -s 3 -d 4 -p cbr -e 500 -c 1 -i 18 -a 1 -x {0.0 4.0 18 ------- null}
r -t 0.487 -s 0 -d 2 -p cbr -e 500 -c 1 -i 31 -a 1 -x {0.0 4.0 31 ------- null}
+ -t 0.487 -s 2 -d 3 -p cbr -e 500 -c 1 -i 31 -a 1 -x {0.0 4.0 31 ------- null}
- -t 0.487 -s 2 -d 3 -p cbr -e 500 -c 1 -i 31 -a 1 -x {0.0 4.0 31 ------- null}
h -t 0.487 -s 2 -d 3 -p cbr -e 500 -c 1 -i 31 -a 1 -x {0.0 4.0 -1 ------- null}
r -t 0.489 -s 2 -d 3 -p cbr -e 500 -c 1 -i 25 -a 1 -x {0.0 4.0 25 ------- null}
+ -t 0.489 -s 3 -d 4 -p cbr -e 500 -c 1 -i 25 -a 1 -x {0.0 4.0 25 ------- null}
- -t 0.489 -s 3 -d 4 -p cbr -e 500 -c 1 -i 25 -a 1 -x {0.0 4.0 25 ------- null}
h -t 0.489 -s 3 -d 4 -p cbr -e 500 -c 1 -i 25 -a 1 -x {0.0 4.0 -1 ------- null}