+ 0.3 0 2 cbr 500 ------- 1 0.0 4.0 0 0
- 0.3 0 2 cbr 500 ------- 1 0.0 4.0 0 0
+ 0.305 0 2 cbr 500 ------- 1 0.0 4.0 1 1
- 0.305 0 2 cbr 500 ------- 1 0.0 4.0 1 1
+ 0.31 0 2 cbr 500 ------- 1 0.0 4.0 2 2
- 0.31 0 2 cbr 500 ------- 1 0.0 4.0 2 2
+ 0.315 0 2 cbr 500 ------- 1 0.0 4.0 3 3
- 0.315 0 2 cbr 500 ------- 1 0.0 4.0 3 3
+ 0.32 0 2 cbr 500 ------- 1 0.0 4.0 4 4
- 0.32 0 2 cbr 500 ------- 1 0.0 4.0 4 4
+ 0.325 0 2 cbr 500 ------- 1 0.0 4.0 5 5
- 0.325 0 2 cbr 500 ------- 1 0.0 4.0 5 5
+ 0.33 0 2 cbr 500 ------- 1 0.0 4.0 6 6
- 0.33 0 2 cbr 500 ------- 1 0.0 4.0 6 6
r 0.332 0 2 cbr 500 ------- 1 0.0 4.0 0 0
+ 0.332 2 3 cbr 500 ------- 1 0.0 4.0 0 0
- 0.332 2 3 cbr 500 ------- 1 0.0 4.0 0 0
+ 0.335 0 2 cbr 500 ------- 1 0.0 4.0 7 7
- 0.335 0 2 cbr 500 ------- 1 0.0 4.0 7 7
r 0.337 0 2 cbr 500 ------- 1 0.0 4.0 1 1
+ 0.337 2 3 cbr 500 ------- 1 0.0 4.0 1 1
- 0.337 2 3 cbr 500 ------- 1 0.0 4.0 1 1
+ 0.34 0 2 cbr 500 ------- 1 0.0 4.0 8 8
- 0.34 0 2 cbr 500 ------- 1 0.0 4.0 8 8
r 0.342 0 2 cbr 500 ------- 1 0.0 4.0 2 2
+ 0.342 2 3 cbr 500 ------- 1 0.0 4.0 2 2
- 0.342 2 3 cbr 500 ------- 1 0.0 4.0 2 2
+ 0.345 0 2 cbr 500 ------- 1 0.0 4.0 9 9
- 0.345 0 2 cbr 500 ------- 1 0.0 4.0 9 9
r 0.347 0 2 cbr 500 ------- 1 0.0 4.0 3 3
+ 0.347 2 3 cbr 500 ------- 1 0.0 4.0 3 3
- 0.347 2 3 cbr 500 ------- 1 0.0 4.0 3 3
+ 0.35 0 2 cbr 500 ------- 1 0.0 4.0 10 10
- 0.35 0 2 cbr 500 ------- 1 0.0 4.0 10 10
r 0.352 0 2 cbr 500 ------- 1 0.0 4.0 4 4
+ 0.352 2 3 cbr 500 ------- 1 0.0 4.0 4 4
- 0.352 2 3 cbr 500 ------- 1 0.0 4.0 4 4
+ 0.355 0 2 cbr 500 ------- 1 0.0 4.0 11 11
- 0.355 0 2 cbr 500 ------- 1 0.0 4.0 11 11
r 0.357 0 2 cbr 500 ------- 1 0.0 4.0 5 5
+ 0.357 2 3 cbr 500 ------- 1 0.0 4.0 5 5
- 0.357 2 3 cbr 500 ------- 1 0.0 4.0 5 5
+ 0.36 0 2 cbr 500 ------- 1 0.0 4.0 12 12
- 0.36 0 2 cbr 500 ------- 1 0.0 4.0 12 12
r 0.362 0 2 cbr 500 ------- 1 0.0 4.0 6 6
+ 0.362 2 3 cbr 500 ------- 1 0.0 4.0 6 6
- 0.362 2 3 cbr 500 ------- 1 0.0 4.0 6 6
r 0.364 2 3 cbr 500 ------- 1 0.0 4.0 0 0
+ 0.364 3 4 cbr 500 ------- 1 0.0 4.0 0 0
- 0.364 3 4 cbr 500 ------- 1 0.0 4.0 0 0
+ 0.365 0 2 cbr 500 ------- 1 0.0 4.0 13 13
- 0.365 0 2 cbr 500 ------- 1 0.0 4.0 13 13
r 0.367 0 2 cbr 500 ------- 1 0.0 4.0 7 7
+ 0.367 2 3 cbr 500 ------- 1 0.0 4.0 7 7
- 0.367 2 3 cbr 500 ------- 1 0.0 4.0 7 7
r 0.369 2 3 cbr 500 ------- 1 0.0 4.0 1 1
+ 0.369 3 4 cbr 500 ------- 1 0.0 4.0 1 1
- 0.369 3 4 cbr 500 ------- 1 0.0 4.0 1 1
+ 0.37 0 2 cbr 500 ------- 1 0.0 4.0 14 14
- 0.37 0 2 cbr 500 ------- 1 0.0 4.0 14 14
r 0.372 0 2 cbr 500 ------- 1 0.0 4.0 8 8
+ 0.372 2 3 cbr 500 ------- 1 0.0 4.0 8 8
- 0.372 2 3 cbr 500 ------- 1 0.0 4.0 8 8
r 0.374 2 3 cbr 500 ------- 1 0.0 4.0 2 2
+ 0.374 3 4 cbr 500 ------- 1 0.0 4.0 2 2
- 0.374 3 4 cbr 500 ------- 1 0.0 4.0 2 2
+ 0.375 0 2 cbr 500 ------- 1 0.0 4.0 15 15
- 0.375 0 2 cbr 500 ------- 1 0.0 4.0 15 15
r 0.377 0 2 cbr 500 ------- 1 0.0 4.0 9 9
+ 0.377 2 3 cbr 500 ------- 1 0.0 4.0 9 9
- 0.377 2 3 cbr 500 ------- 1 0.0 4.0 9 9
r 0.379 2 3 cbr 500 ------- 1 0.0 4.0 3 3
+ 0.379 3 4 cbr 500 ------- 1 0.0 4.0 3 3
- 0.379 3 4 cbr 500 ------- 1 0.0 4.0 3 3
+ 0.38 0 2 cbr 500 ------- 1 0.0 4.0 16 16
- 0.38 0 2 cbr 500 ------- 1 0.0 4.0 16 16
r 0.382 0 2 cbr 500 ------- 1 0.0 4.0 10 10
+ 0.382 2 3 cbr 500 ------- 1 0.0 4.0 10 10
- 0.382 2 3 cbr 500 ------- 1 0.0 4.0 10 10
r 0.384 2 3 cbr 500 ------- 1 0.0 4.0 4 4
+ 0.384 3 4 cbr 500 ------- 1 0.0 4.0 4 4
- 0.384 3 4 cbr 500 ------- 1 0.0 4.0 4 4
+ 0.385 0 2 cbr 500 ------- 1 0.0 4.0 17 17
- 0.385 0 2 cbr 500 ------- 1 0.0 4.0 17 17
r 0.387 0 2 cbr 500 ------- 1 0.0 4.0 11 11
+ 0.387 2 3 cbr 500 ------- 1 0.0 4.0 11 11
- 0.387 2 3 cbr 500 ------- 1 0.0 4.0 11 11
r 0.389 2 3 cbr 500 ------- 1 0.0 4.0 5 5
+ 0.389 3 4 cbr 500 ------- 1 0.0 4.0 5 5
- 0.389 3 4 cbr 500 ------- 1 0.0 4.0 5 5
+ 0.39 0 2 cbr 500 ------- 1 0.0 4.0 18 18
- 0.39 0 2 cbr 500 ------- 1 0.0 4.0 18 18
r 0.392 0 2 cbr 500 ------- 1 0.0 4.0 12 12
+ 0.392 2 3 cbr 500 ------- 1 0.0 4.0 12 12
- 0.392 2 3 cbr 500 ------- 1 0.0 4.0 12 12
r 0.394 2 3 cbr 500 ------- 1 0.0 4.0 6 6
+ 0.394 3 4 cbr 500 ------- 1 0.0 4.0 6 6
- 0.394 3 4 cbr 500 ------- 1 0.0 4.0 6 6
+ 0.395 0 2 cbr 500 ------- 1 0.0 4.0 19 19
- 0.395 0 2 cbr 500 ------- 1 0.0 4.0 19 19
r 0.396 3 4 cbr 500 ------- 1 0.0 4.0 0 0
r 0.397 0 2 cbr 500 ------- 1 0.0 4.0 13 13
+ 0.397 2 3 cbr 500 ------- 1 0.0 4.0 13 13
- 0.397 2 3 cbr 500 ------- 1 0.0 4.0 13 13
r 0.399 2 3 cbr 500 ------- 1 0.0 4.0 7 7
+ 0.399 3 4 cbr 500 ------- 1 0.0 4.0 7 7
- 0.399 3 4 cbr 500 ------- 1 0.0 4.0 7 7
+ 0.4 0 2 cbr 500 ------- 1 0.0 4.0 20 20
- 0.4 0 2 cbr 500 ------- 1 0.0 4.0 20 20
r 0.401 3 4 cbr 500 ------- 1 0.0 4.0 1 1
r 0.402 0 2 cbr 500 ------- 1 0.0 4.0 14 14
+ 0.402 2 3 cbr 500 ------- 1 0.0 4.0 14 14
- 0.402 2 3 cbr 500 ------- 1 0.0 4.0 14 14
r 0.404 2 3 cbr 500 ------- 1 0.0 4.0 8 8
+ 0.404 3 4 cbr 500 ------- 1 0.0 4.0 8 8
- 0.404 3 4 cbr 500 ------- 1 0.0 4.0 8 8
+ 0.405 0 2 cbr 500 ------- 1 0.0 4.0 21 21
- 0.405 0 2 cbr 500 ------- 1 0.0 4.0 21 21
r 0.406 3 4 cbr 500 ------- 1 0.0 4.0 2 2
r 0.407 0 2 cbr 500 ------- 1 0.0 4.0 15 15
+ 0.407 2 3 cbr 500 ------- 1 0.0 4.0 15 15
- 0.407 2 3 cbr 500 ------- 1 0.0 4.0 15 15
r 0.409 2 3 cbr 500 ------- 1 0.0 4.0 9 9
+ 0.409 3 4 cbr 500 ------- 1 0.0 4.0 9 9
- 0.409 3 4 cbr 500 ------- 1 0.0 4.0 9 9
+ 0.41 0 2 cbr 500 ------- 1 0.0 4.0 22 22
- 0.41 0 2 cbr 500 ------- 1 0.0 4.0 22 22
r 0.411 3 4 cbr 500 ------- 1 0.0 4.0 3 3
r 0.412 0 2 cbr 500 ------- 1 0.0 4.0 16 16
+ 0.412 2 3 cbr 500 ------- 1 0.0 4.0 16 16
- 0.412 2 3 cbr 500 ------- 1 0.0 4.0 16 16
r 0.414 2 3 cbr 500 ------- 1 0.0 4.0 10 10
+ 0.414 3 4 cbr 500 ------- 1 0.0 4.0 10 10
- 0.414 3 4 cbr 500 ------- 1 0.0 4.0 10 10
+ 0.415 0 2 cbr 500 ------- 1 0.0 4.0 23 23
- 0.415 0 2 cbr 500 ------- 1 0.0 4.0 23 23
r 0.416 3 4 cbr 500 ------- 1 0.0 4.0 4 4
r 0.417 0 2 cbr 500 ------- 1 0.0 4.0 17 17
+ 0.417 2 3 cbr 500 ------- 1 0.0 4.0 17 17
- 0.417 2 3 cbr 500 ------- 1 0.0 4.0 17 17
r 0.419 2 3 cbr 500 ------- 1 0.0 4.0 11 11
+ 0.419 3 4 cbr 500 ------- 1 0.0 4.0 11 11
- 0.419 3 4 cbr 500 ------- 1 0.0 4.0 11 11
+ 0.42 0 2 cbr 500 ------- 1 0.0 4.0 24 24
- 0.42 0 2 cbr 500 ------- 1 0.0 4.0 24 24
r 0.421 3 4 cbr 500 ------- 1 0.0 4.0 5 5
r 0.422 0 2 cbr 500 ------- 1 0.0 4.0 18 18
+ 0.422 2 3 cbr 500 ------- 1 0.0 4.0 18 18
- 0.422 2 3 cbr 500 ------- 1 0.0 4.0 18 18
r 0.424 2 3 cbr 500 ------- 1 0.0 4.0 12 12
+ 0.424 3 4 cbr 500 ------- 1 0.0 4.0 12 12
- 0.424 3 4 cbr 500 ------- 1 0.0 4.0 12 12
+ 0.425 0 2 cbr 500 ------- 1 0.0 4.0 25 25
- 0.425 0 2 cbr 500 ------- 1 0.0 4.0 25 25
r 0.426 3 4 cbr 500 ------- 1 0.0 4.0 6 6
r 0.427 0 2 cbr 500 ------- 1 0.0 4.0 19 19
+ 0.427 2 3 cbr 500 ------- 1 0.0 4.0 19 19
- 0.427 2 3 cbr 500 ------- 1 0.0 4.0 19 19
r 0.429 2 3 cbr 500 ------- 1 0.0 4.0 13 13
+ 0.429 3 4 cbr 500 ------- 1 0.0 4.0 13 13
- 0.429 3 4 cbr 500 ------- 1 0.0 4.0 13 13
+ 0.43 0 2 cbr 500 ------- 1 0.0 4.0 26 26
- 0.43 0 2 cbr 500 ------- 1 0.0 4.0 26 26
r 0.431 3 4 cbr 500 ------- 1 0.0 4.0 7 7
r 0.432 0 2 cbr 500 ------- 1 0.0 4.0 20 20
+ 0.432 2 3 cbr 500 ------- 1 0.0 4.0 20 20
- 0.432 2 3 cbr 500 ------- 1 0.0 4.0 20 20
r 0.434 2 3 cbr 500 ------- 1 0.0 4.0 14 14
+ 0.434 3 4 cbr 500 ------- 1 0.0 4.0 14 14
- 0.434 3 4 cbr 500 ------- 1 0.0 4.0 14 14
+ 0.435 0 2 cbr 500 ------- 1 0.0 4.0 27 27
- 0.435 0 2 cbr 500 ------- 1 0.0 4.0 27 27
r 0.436 3 4 cbr 500 ------- 1 0.0 4.0 8 8
r 0.437 0 2 cbr 500 ------- 1 0.0 4.0 21 21
+ 0.437 2 3 cbr 500 ------- 1 0.0 4.0 21 21
- 0.437 2 3 cbr 500 ------- 1 0.0 4.0 21 21
r 0.439 2 3 cbr 500 ------- 1 0.0 4.0 15 15
+ 0.439 3 4 cbr 500 ------- 1 0.0 4.0 15 15
- 0.439 3 4 cbr 500 ------- 1 0.0 4.0 15 15
+ 0.44 0 2 cbr 500 ------- 1 0.0 4.0 28 28
- 0.44 0 2 cbr 500 ------- 1 0.0 4.0 28 28
r 0.441 3 4 cbr 500 ------- 1 0.0 4.0 9 9
r 0.442 0 2 cbr 500 ------- 1 0.0 4.0 22 22
+ 0.442 2 3 cbr 500 ------- 1 0.0 4.0 22 22
- 0.442 2 3 cbr 500 ------- 1 0.0 4.0 22 22
r 0.444 2 3 cbr 500 ------- 1 0.0 4.0 16 16
+ 0.444 3 4 cbr 500 ------- 1 0.0 4.0 16 16
- 0.444 3 4 cbr 500 ------- 1 0.0 4.0 16 16
+ 0.445 0 2 cbr 500 ------- 1 0.0 4.0 29 29
- 0.445 0 2 cbr 500 ------- 1 0.0 4.0 29 29
r 0.446 3 4 cbr 500 ------- 1 0.0 4.0 10 10
r 0.447 0 2 cbr 500 ------- 1 0.0 4.0 23 23
+ 0.447 2 3 cbr 500 ------- 1 0.0 4.0 23 23
- 0.447 2 3 cbr 500 ------- 1 0.0 4.0 23 23
r 0.449 2 3 cbr 500 ------- 1 0.0 4.0 17 17
+ 0.449 3 4 cbr 500 ------- 1 0.0 4.0 17 17
- 0.449 3 4 cbr 500 ------- 1 0.0 4.0 17 17
+ 0.45 0 2 cbr 500 ------- 1 0.0 4.0 30 30
- 0.45 0 2 cbr 500 ------- 1 0.0 4.0 30 30
r 0.451 3 4 cbr 500 ------- 1 0.0 4.0 11 11
r 0.452 0 2 cbr 500 ------- 1 0.0 4.0 24 24
+ 0.452 2 3 cbr 500 ------- 1 0.0 4.0 24 24
- 0.452 2 3 cbr 500 ------- 1 0.0 4.0 24 24
r 0.454 2 3 cbr 500 ------- 1 0.0 4.0 18 18
+ 0.454 3 4 cbr 500 ------- 1 0.0 4.0 18 18
- 0.454 3 4 cbr 500 ------- 1 0.0 4.0 18 18
+ 0.455 0 2 cbr 500 ------- 1 0.0 4.0 31 31
- 0.455 0 2 cbr 500 ------- 1 0.0 4.0 31 31
r 0.456 3 4 cbr 500 ------- 1 0.0 4.0 12 12
r 0.457 0 2 cbr 500 ------- 1 0.0 4.0 25 25
+ 0.457 2 3 cbr 500 ------- 1 0.0 4.0 25 25
- 0.457 2 3 cbr 500 ------- 1 0.0 4.0 25 25
r 0.459 2 3 cbr 500 ------- 1 0.0 4.0 19 19
+ 0.459 3 4 cbr 500 ------- 1 0.0 4.0 19 19
- 0.459 3 4 cbr 500 ------- 1 0.0 4.0 19 19
+ 0.46 0 2 cbr 500 ------- 1 0.0 4.0 32 32
- 0.46 0 2 cbr 500 ------- 1 0.0 4.0 32 32
r 0.461 3 4 cbr 500 ------- 1 0.0 4.0 13 13
r 0.462 0 2 cbr 500 ------- 1 0.0 4.0 26 26
+ 0.462 2 3 cbr 500 ------- 1 0.0 4.0 26 26
- 0.462 2 3 cbr 500 ------- 1 0.0 4.0 26 26
r 0.464 2 3 cbr 500 ------- 1 0.0 4.0 20 20
+ 0.464 3 4 cbr 500 ------- 1 0.0 4.0 20 20
- 0.464 3 4 cbr 500 ------- 1 0.0 4.0 20 20
+ 0.465 0 2 cbr 500 ------- 1 0.0 4.0 33 33
- 0.465 0 2 cbr 500 ------- 1 0.0 4.0 33 33
r 0.466 3 4 cbr 500 ------- 1 0.0 4.0 14 14
r 0.467 0 2 cbr 500 ------- 1 0.0 4.0 27 27
+ 0.467 2 3 cbr 500 ------- 1 0.0 4.0 27 27
- 0.467 2 3 cbr 500 ------- 1 0.0 4.0 27 27
r 0.469 2 3 cbr 500 ------- 1 0.0 4.0 21 21
+ 0.469 3 4 cbr 500 ------- 1 0.0 4.0 21 21
- 0.469 3 4 cbr 500 ------- 1 0.0 4.0 21 21
+ 0.47 0 2 cbr 500 ------- 1 0.0 4.0 34 34
- 0.47 0 2 cbr 500 ------- 1 0.0 4.0 34 34
r 0.471 3 4 cbr 500 ------- 1 0.0 4.0 15 15
r 0.472 0 2 cbr 500 ------- 1 0.0 4.0 28 28
+ 0.472 2 3 cbr 500 ------- 1 0.0 4.0 28 28
- 0.472 2 3 cbr 500 ------- 1 0.0 4.0 28 28
r 0.474 2 3 cbr 500 ------- 1 0.0 4.0 22 22
+ 0.474 3 4 cbr 500 ------- 1 0.0 4.0 22 22
- 0.474 3 4 cbr 500 ------- 1 0.0 4.0 22 22
+ 0.475 0 2 cbr 500 ------- 1 0.0 4.0 35 35
- 0.475 0 2 cbr 500 ------- 1 0.0 4.0 35 35
r 0.476 3 4 cbr 500 ------- 1 0.0 4.0 16 16
r 0.477 0 2 cbr 500 ------- 1 0.0 4.0 29 29
+ 0.477 2 3 cbr 500 ------- 1 0.0 4.0 29 29
- 0.477 2 3 cbr 500 ------- 1 0.0 4.0 29 29
r 0.479 2 3 cbr 500 ------- 1 0.0 4.0 23 23
+ 0.479 3 4 cbr 500 ------- 1 0.0 4.0 23 23
- 0.479 3 4 cbr 500 ------- 1 0.0 4.0 23 23
+ 0.48 0 2 cbr 500 ------- 1 0.0 4.0 36 36
- 0.48 0 2 cbr 500 ------- 1 0.0 4.0 36 36
r 0.481 3 4 cbr 500 ------- 1 0.0 4.0 17 17
r 0.482 0 2 cbr 500 ------- 1 0.0 4.0 30 30
+ 0.482 2 3 cbr 500 ------- 1 0.0 4.0 30 30
- 0.482 2 3 cbr 500 ------- 1 0.0 4.0 30 30
r 0.484 2 3 cbr 500 ------- 1 0.0 4.0 24 24
+ 0.484 3 4 cbr 500 ------- 1 0.0 4.0 24 24
- 0.484 3 4 cbr 500 ------- 1 0.0 4.0 24 24
+ 0.485 0 2 cbr 500 ------- 1 0.0 4.0 37 37
- 0.485 0 2 cbr 500 ------- 1 0.0 4.0 37 37
r 0.486 3 4 cbr 500 ------- 1 0.0 4.0 18 18
r 0.487 0 2 cbr 500 ------- 1 0.0 4.0 31 31
+ 0.487 2 3 cbr 500 ------- 1 0.0 4.0 31 31
- 0.487 2 3 cbr 500 ------- 1 0.0 4.0 31 31
r 0.489 2 3 cbr 500 ------- 1 0.0 4.0 25 25
+ 0.489 3 4 cbr 500 ------- 1 0.0 4.0 25 25
- 0.489 3 4 cbr 500 ------- 1 0.0 4.0 25 25
+ 0.49 0 2 cbr 500 ------- 1 0.0 4.0 38 38
- 0.49 0 2 cbr 500 ------- 1 0.0 4.0 38 38
r 0.491 3 4 cbr 500 ------- 1 0.0 4.0 19 19
r 0.492 0 2 cbr 500 ------- 1 0.0 4.0 32 32
+ 0.492 2 3 cbr 500 ------- 1 0.0 4.0 32 32
- 0.492 2 3 cbr 500 ------- 1 0.0 4.0 32 32
r 0.494 2 3 cbr 500 ------- 1 0.0 4.0 26 26
+ 0.494 3 4 cbr 500 ------- 1 0.0 4.0 26 26
- 0.494 3 4 cbr 500 ------- 1 0.0 4.0 26 26
+ 0.495 0 2 cbr 500 ------- 1 0.0 4.0 39 39
- 0.495 0 2 cbr 500 ------- 1 0.0 4.0 39 39
r 0.496 3 4 cbr 500 ------- 1 0.0 4.0 20 20
r 0.497 0 2 cbr 500 ------- 1 0.0 4.0 33 33
+ 0.497 2 3 cbr 500 ------- 1 0.0 4.0 33 33
- 0.497 2 3 cbr 500 ------- 1 0.0 4.0 33 33
r 0.499 2 3 cbr 500 ------- 1 0.0 4.0 27 27
+ 0.499 3 4 cbr 500 ------- 1 0.0 4.0 27 27
- 0.499 3 4 cbr 500 ------- 1 0.0 4.0 27 27
+ 0.5 1 2 cbr 500 ------- 2 1.0 5.0 0 40
- 0.5 1 2 cbr 500 ------- 2 1.0 5.0 0 40
+ 0.5 0 2 cbr 500 ------- 1 0.0 4.0 40 41
- 0.5 0 2 cbr 500 ------- 1 0.0 4.0 40 41
r 0.501 3 4 cbr 500 ------- 1 0.0 4.0 21 21
r 0.502 0 2 cbr 500 ------- 1 0.0 4.0 34 34
+ 0.502 2 3 cbr 500 ------- 1 0.0 4.0 34 34
- 0.502 2 3 cbr 500 ------- 1 0.0 4.0 34 34
r 0.504 2 3 cbr 500 ------- 1 0.0 4.0 28 28
+ 0.504 3 4 cbr 500 ------- 1 0.0 4.0 28 28
- 0.504 3 4 cbr 500 ------- 1 0.0 4.0 28 28
+ 0.505 1 2 cbr 500 ------- 2 1.0 5.0 1 42
- 0.505 1 2 cbr 500 ------- 2 1.0 5.0 1 42
+ 0.505 0 2 cbr 500 ------- 1 0.0 4.0 41 43
- 0.505 0 2 cbr 500 ------- 1 0.0 4.0 41 43
r 0.506 3 4 cbr 500 ------- 1 0.0 4.0 22 22
r 0.507 0 2 cbr 500 ------- 1 0.0 4.0 35 35
+ 0.507 2 3 cbr 500 ------- 1 0.0 4.0 35 35
- 0.507 2 3 cbr 500 ------- 1 0.0 4.0 35 35
r 0.509 2 3 cbr 500 ------- 1 0.0 4.0 29 29
+ 0.509 3 4 cbr 500 ------- 1 0.0 4.0 29 29
- 0.509 3 4 cbr 500 ------- 1 0.0 4.0 29 29
+ 0.51 1 2 cbr 500 ------- 2 1.0 5.0 2 44
- 0.51 1 2 cbr 500 ------- 2 1.0 5.0 2 44
+ 0.51 0 2 cbr 500 ------- 1 0.0 4.0 42 45
- 0.51 0 2 cbr 500 ------- 1 0.0 4.0 42 45
r 0.511 3 4 cbr 500 ------- 1 0.0 4.0 23 23
r 0.512 0 2 cbr 500 ------- 1 0.0 4.0 36 36
+ 0.512 2 3 cbr 500 ------- 1 0.0 4.0 36 36
- 0.512 2 3 cbr 500 ------- 1 0.0 4.0 36 36
r 0.514 2 3 cbr 500 ------- 1 0.0 4.0 30 30
+ 0.514 3 4 cbr 500 ------- 1 0.0 4.0 30 30
- 0.514 3 4 cbr 500 ------- 1 0.0 4.0 30 30
+ 0.515 1 2 cbr 500 ------- 2 1.0 5.0 3 46
- 0.515 1 2 cbr 500 ------- 2 1.0 5.0 3 46
+ 0.515 0 2 cbr 500 ------- 1 0.0 4.0 43 47
- 0.515 0 2 cbr 500 ------- 1 0.0 4.0 43 47
r 0.516 3 4 cbr 500 ------- 1 0.0 4.0 24 24
r 0.517 0 2 cbr 500 ------- 1 0.0 4.0 37 37
+ 0.517 2 3 cbr 500 ------- 1 0.0 4.0 37 37
- 0.517 2 3 cbr 500 ------- 1 0.0 4.0 37 37
r 0.519 2 3 cbr 500 ------- 1 0.0 4.0 31 31
+ 0.519 3 4 cbr 500 ------- 1 0.0 4.0 31 31
- 0.519 3 4 cbr 500 ------- 1 0.0 4.0 31 31
+ 0.52 1 2 cbr 500 ------- 2 1.0 5.0 4 48
- 0.52 1 2 cbr 500 ------- 2 1.0 5.0 4 48
+ 0.52 0 2 cbr 500 ------- 1 0.0 4.0 44 49
- 0.52 0 2 cbr 500 ------- 1 0.0 4.0 44 49
r 0.521 3 4 cbr 500 ------- 1 0.0 4.0 25 25
r 0.522 0 2 cbr 500 ------- 1 0.0 4.0 38 38
+ 0.522 2 3 cbr 500 ------- 1 0.0 4.0 38 38
- 0.522 2 3 cbr 500 ------- 1 0.0 4.0 38 38
r 0.524 2 3 cbr 500 ------- 1 0.0 4.0 32 32
+ 0.524 3 4 cbr 500 ------- 1 0.0 4.0 32 32
- 0.524 3 4 cbr 500 ------- 1 0.0 4.0 32 32
+ 0.525 1 2 cbr 500 ------- 2 1.0 5.0 5 50
- 0.525 1 2 cbr 500 ------- 2 1.0 5.0 5 50
+ 0.525 0 2 cbr 500 ------- 1 0.0 4.0 45 51
- 0.525 0 2 cbr 500 ------- 1 0.0 4.0 45 51
r 0.526 3 4 cbr 500 ------- 1 0.0 4.0 26 26
r 0.527 0 2 cbr 500 ------- 1 0.0 4.0 39 39
+ 0.527 2 3 cbr 500 ------- 1 0.0 4.0 39 39
- 0.527 2 3 cbr 500 ------- 1 0.0 4.0 39 39
r 0.529 2 3 cbr 500 ------- 1 0.0 4.0 33 33
+ 0.529 3 4 cbr 500 ------- 1 0.0 4.0 33 33
- 0.529 3 4 cbr 500 ------- 1 0.0 4.0 33 33
+ 0.53 1 2 cbr 500 ------- 2 1.0 5.0 6 52
- 0.53 1 2 cbr 500 ------- 2 1.0 5.0 6 52
+ 0.53 0 2 cbr 500 ------- 1 0.0 4.0 46 53
- 0.53 0 2 cbr 500 ------- 1 0.0 4.0 46 53
r 0.531 3 4 cbr 500 ------- 1 0.0 4.0 27 27
r 0.532 1 2 cbr 500 ------- 2 1.0 5.0 0 40
+ 0.532 2 3 cbr 500 ------- 2 1.0 5.0 0 40
- 0.532 2 3 cbr 500 ------- 2 1.0 5.0 0 40
r 0.532 0 2 cbr 500 ------- 1 0.0 4.0 40 41
+ 0.532 2 3 cbr 500 ------- 1 0.0 4.0 40 41
- 0.534 2 3 cbr 500 ------- 1 0.0 4.0 40 41
r 0.534 2 3 cbr 500 ------- 1 0.0 4.0 34 34
+ 0.534 3 4 cbr 500 ------- 1 0.0 4.0 34 34
- 0.534 3 4 cbr 500 ------- 1 0.0 4.0 34 34
+ 0.535 1 2 cbr 500 ------- 2 1.0 5.0 7 54
- 0.535 1 2 cbr 500 ------- 2 1.0 5.0 7 54
+ 0.535 0 2 cbr 500 ------- 1 0.0 4.0 47 55
- 0.535 0 2 cbr 500 ------- 1 0.0 4.0 47 55
r 0.536 3 4 cbr 500 ------- 1 0.0 4.0 28 28
r 0.537 1 2 cbr 500 ------- 2 1.0 5.0 1 42
+ 0.537 2 3 cbr 500 ------- 2 1.0 5.0 1 42
- 0.537 2 3 cbr 500 ------- 2 1.0 5.0 1 42
r 0.537 0 2 cbr 500 ------- 1 0.0 4.0 41 43
+ 0.537 2 3 cbr 500 ------- 1 0.0 4.0 41 43
- 0.539 2 3 cbr 500 ------- 1 0.0 4.0 41 43
r 0.539 2 3 cbr 500 ------- 1 0.0 4.0 35 35
+ 0.539 3 4 cbr 500 ------- 1 0.0 4.0 35 35
- 0.539 3 4 cbr 500 ------- 1 0.0 4.0 35 35
+ 0.54 1 2 cbr 500 ------- 2 1.0 5.0 8 56
- 0.54 1 2 cbr 500 ------- 2 1.0 5.0 8 56
+ 0.54 0 2 cbr 500 ------- 1 0.0 4.0 48 57
- 0.54 0 2 cbr 500 ------- 1 0.0 4.0 48 57
r 0.541 3 4 cbr 500 ------- 1 0.0 4.0 29 29
r 0.542 1 2 cbr 500 ------- 2 1.0 5.0 2 44
+ 0.542 2 3 cbr 500 ------- 2 1.0 5.0 2 44
- 0.542 2 3 cbr 500 ------- 2 1.0 5.0 2 44
r 0.542 0 2 cbr 500 ------- 1 0.0 4.0 42 45
+ 0.542 2 3 cbr 500 ------- 1 0.0 4.0 42 45
- 0.544 2 3 cbr 500 ------- 1 0.0 4.0 42 45
r 0.544 2 3 cbr 500 ------- 1 0.0 4.0 36 36
+ 0.544 3 4 cbr 500 ------- 1 0.0 4.0 36 36
- 0.544 3 4 cbr 500 ------- 1 0.0 4.0 36 36
+ 0.545 1 2 cbr 500 ------- 2 1.0 5.0 9 58
- 0.545 1 2 cbr 500 ------- 2 1.0 5.0 9 58
+ 0.545 0 2 cbr 500 ------- 1 0.0 4.0 49 59
- 0.545 0 2 cbr 500 ------- 1 0.0 4.0 49 59
r 0.546 3 4 cbr 500 ------- 1 0.0 4.0 30 30
r 0.547 1 2 cbr 500 ------- 2 1.0 5.0 3 46
+ 0.547 2 3 cbr 500 ------- 2 1.0 5.0 3 46
- 0.547 2 3 cbr 500 ------- 2 1.0 5.0 3 46
r 0.547 0 2 cbr 500 ------- 1 0.0 4.0 43 47
+ 0.547 2 3 cbr 500 ------- 1 0.0 4.0 43 47
- 0.549 2 3 cbr 500 ------- 1 0.0 4.0 43 47
r 0.549 2 3 cbr 500 ------- 1 0.0 4.0 37 37
+ 0.549 3 4 cbr 500 ------- 1 0.0 4.0 37 37
- 0.549 3 4 cbr 500 ------- 1 0.0 4.0 37 37
+ 0.55 1 2 cbr 500 ------- 2 1.0 5.0 10 60
- 0.55 1 2 cbr 500 ------- 2 1.0 5.0 10 60
+ 0.55 0 2 cbr 500 ------- 1 0.0 4.0 50 61
- 0.55 0 2 cbr 500 ------- 1 0.0 4.0 50 61
r 0.551 3 4 cbr 500 ------- 1 0.0 4.0 31 31
r 0.552 1 2 cbr 500 ------- 2 1.0 5.0 4 48
+ 0.552 2 3 cbr 500 ------- 2 1.0 5.0 4 48
- 0.552 2 3 cbr 500 ------- 2 1.0 5.0 4 48
r 0.552 0 2 cbr 500 ------- 1 0.0 4.0 44 49
+ 0.552 2 3 cbr 500 ------- 1 0.0 4.0 44 49
- 0.554 2 3 cbr 500 ------- 1 0.0 4.0 44 49
r 0.554 2 3 cbr 500 ------- 1 0.0 4.0 38 38
+ 0.554 3 4 cbr 500 ------- 1 0.0 4.0 38 38
- 0.554 3 4 cbr 500 ------- 1 0.0 4.0 38 38
+ 0.555 1 2 cbr 500 ------- 2 1.0 5.0 11 62
- 0.555 1 2 cbr 500 ------- 2 1.0 5.0 11 62
+ 0.555 0 2 cbr 500 ------- 1 0.0 4.0 51 63
- 0.555 0 2 cbr 500 ------- 1 0.0 4.0 51 63
r 0.556 3 4 cbr 500 ------- 1 0.0 4.0 32 32
r 0.557 1 2 cbr 500 ------- 2 1.0 5.0 5 50
+ 0.557 2 3 cbr 500 ------- 2 1.0 5.0 5 50
- 0.557 2 3 cbr 500 ------- 2 1.0 5.0 5 50
r 0.557 0 2 cbr 500 ------- 1 0.0 4.0 45 51
+ 0.557 2 3 cbr 500 ------- 1 0.0 4.0 45 51
- 0.559 2 3 cbr 500 ------- 1 0.0 4.0 45 51
r 0.559 2 3 cbr 500 ------- 1 0.0 4.0 39 39
+ 0.559 3 4 cbr 500 ------- 1 0.0 4.0 39 39
- 0.559 3 4 cbr 500 ------- 1 0.0 4.0 39 39
+ 0.56 1 2 cbr 500 ------- 2 1.0 5.0 12 64
- 0.56 1 2 cbr 500 ------- 2 1.0 5.0 12 64
+ 0.56 0 2 cbr 500 ------- 1 0.0 4.0 52 65
- 0.56 0 2 cbr 500 ------- 1 0.0 4.0 52 65
r 0.561 3 4 cbr 500 ------- 1 0.0 4.0 33 33
r 0.562 1 2 cbr 500 ------- 2 1.0 5.0 6 52
+ 0.562 2 3 cbr 500 ------- 2 1.0 5.0 6 52
- 0.562 2 3 cbr 500 ------- 2 1.0 5.0 6 52
r 0.562 0 2 cbr 500 ------- 1 0.0 4.0 46 53
+ 0.562 2 3 cbr 500 ------- 1 0.0 4.0 46 53
r 0.564 2 3 cbr 500 ------- 2 1.0 5.0 0 40
+ 0.564 3 5 cbr 500 ------- 2 1.0 5.0 0 40
- 0.564 3 5 cbr 500 ------- 2 1.0 5.0 0 40
- 0.564 2 3 cbr 500 ------- 1 0.0 4.0 46 53
+ 0.565 1 2 cbr 500 ------- 2 1.0 5.0 13 66
- 0.565 1 2 cbr 500 ------- 2 1.0 5.0 13 66
+ 0.565 0 2 cbr 500 ------- 1 0.0 4.0 53 67
- 0.565 0 2 cbr 500 ------- 1 0.0 4.0 53 67
r 0.566 2 3 cbr 500 ------- 1 0.0 4.0 40 41
+ 0.566 3 4 cbr 500 ------- 1 0.0 4.0 40 41
- 0.566 3 4 cbr 500 ------- 1 0.0 4.0 40 41
r 0.566 3 4 cbr 500 ------- 1 0.0 4.0 34 34
r 0.567 1 2 cbr 500 ------- 2 1.0 5.0 7 54
+ 0.567 2 3 cbr 500 ------- 2 1.0 5.0 7 54
- 0.567 2 3 cbr 500 ------- 2 1.0 5.0 7 54
r 0.567 0 2 cbr 500 ------- 1 0.0 4.0 47 55
+ 0.567 2 3 cbr 500 ------- 1 0.0 4.0 47 55
r 0.569 2 3 cbr 500 ------- 2 1.0 5.0 1 42
+ 0.569 3 5 cbr 500 ------- 2 1.0 5.0 1 42
- 0.569 3 5 cbr 500 ------- 2 1.0 5.0 1 42
- 0.569 2 3 cbr 500 ------- 1 0.0 4.0 47 55
+ 0.57 1 2 cbr 500 ------- 2 1.0 5.0 14 68
- 0.57 1 2 cbr 500 ------- 2 1.0 5.0 14 68
+ 0.57 0 2 cbr 500 ------- 1 0.0 4.0 54 69
- 0.57 0 2 cbr 500 ------- 1 0.0 4.0 54 69
r 0.571 2 3 cbr 500 ------- 1 0.0 4.0 41 43
+ 0.571 3 4 cbr 500 ------- 1 0.0 4.0 41 43
- 0.571 3 4 cbr 500 ------- 1 0.0 4.0 41 43
r 0.571 3 4 cbr 500 ------- 1 0.0 4.0 35 35
r 0.572 1 2 cbr 500 ------- 2 1.0 5.0 8 56
+ 0.572 2 3 cbr 500 ------- 2 1.0 5.0 8 56
- 0.572 2 3 cbr 500 ------- 2 1.0 5.0 8 56
r 0.572 0 2 cbr 500 ------- 1 0.0 4.0 48 57
+ 0.572 2 3 cbr 500 ------- 1 0.0 4.0 48 57
r 0.574 2 3 cbr 500 ------- 2 1.0 5.0 2 44
+ 0.574 3 5 cbr 500 ------- 2 1.0 5.0 2 44
- 0.574 3 5 cbr 500 ------- 2 1.0 5.0 2 44
- 0.574 2 3 cbr 500 ------- 1 0.0 4.0 48 57
+ 0.575 1 2 cbr 500 ------- 2 1.0 5.0 15 70
- 0.575 1 2 cbr 500 ------- 2 1.0 5.0 15 70
+ 0.575 0 2 cbr 500 ------- 1 0.0 4.0 55 71
- 0.575 0 2 cbr 500 ------- 1 0.0 4.0 55 71
r 0.576 2 3 cbr 500 ------- 1 0.0 4.0 42 45
+ 0.576 3 4 cbr 500 ------- 1 0.0 4.0 42 45
- 0.576 3 4 cbr 500 ------- 1 0.0 4.0 42 45
r 0.576 3 4 cbr 500 ------- 1 0.0 4.0 36 36
r 0.577 1 2 cbr 500 ------- 2 1.0 5.0 9 58
+ 0.577 2 3 cbr 500 ------- 2 1.0 5.0 9 58
- 0.577 2 3 cbr 500 ------- 2 1.0 5.0 9 58
r 0.577 0 2 cbr 500 ------- 1 0.0 4.0 49 59
+ 0.577 2 3 cbr 500 ------- 1 0.0 4.0 49 59
r 0.579 2 3 cbr 500 ------- 2 1.0 5.0 3 46
+ 0.579 3 5 cbr 500 ------- 2 1.0 5.0 3 46
- 0.579 3 5 cbr 500 ------- 2 1.0 5.0 3 46
- 0.579 2 3 cbr 500 ------- 1 0.0 4.0 49 59
+ 0.58 1 2 cbr 500 ------- 2 1.0 5.0 16 72
- 0.58 1 2 cbr 500 ------- 2 1.0 5.0 16 72
+ 0.58 0 2 cbr 500 ------- 1 0.0 4.0 56 73
- 0.58 0 2 cbr 500 ------- 1 0.0 4.0 56 73
r 0.581 2 3 cbr 500 ------- 1 0.0 4.0 43 47
+ 0.581 3 4 cbr 500 ------- 1 0.0 4.0 43 47
- 0.581 3 4 cbr 500 ------- 1 0.0 4.0 43 47
r 0.581 3 4 cbr 500 ------- 1 0.0 4.0 37 37
r 0.582 1 2 cbr 500 ------- 2 1.0 5.0 10 60
+ 0.582 2 3 cbr 500 ------- 2 1.0 5.0 10 60
- 0.582 2 3 cbr 500 ------- 2 1.0 5.0 10 60
r 0.582 0 2 cbr 500 ------- 1 0.0 4.0 50 61
+ 0.582 2 3 cbr 500 ------- 1 0.0 4.0 50 61
r 0.584 2 3 cbr 500 ------- 2 1.0 5.0 4 48
+ 0.584 3 5 cbr 500 ------- 2 1.0 5.0 4 48
- 0.584 3 5 cbr 500 ------- 2 1.0 5.0 4 48
- 0.584 2 3 cbr 500 ------- 1 0.0 4.0 50 61
+ 0.585 1 2 cbr 500 ------- 2 1.0 5.0 17 74
- 0.585 1 2 cbr 500 ------- 2 1.0 5.0 17 74
+ 0.585 0 2 cbr 500 ------- 1 0.0 4.0 57 75
- 0.585 0 2 cbr 500 ------- 1 0.0 4.0 57 75
r 0.586 2 3 cbr 500 ------- 1 0.0 4.0 44 49
+ 0.586 3 4 cbr 500 ------- 1 0.0 4.0 44 49
- 0.586 3 4 cbr 500 ------- 1 0.0 4.0 44 49
r 0.586 3 4 cbr 500 ------- 1 0.0 4.0 38 38
r 0.587 1 2 cbr 500 ------- 2 1.0 5.0 11 62
+ 0.587 2 3 cbr 500 ------- 2 1.0 5.0 11 62
- 0.587 2 3 cbr 500 ------- 2 1.0 5.0 11 62
r 0.587 0 2 cbr 500 ------- 1 0.0 4.0 51 63
+ 0.587 2 3 cbr 500 ------- 1 0.0 4.0 51 63
r 0.589 2 3 cbr 500 ------- 2 1.0 5.0 5 50
+ 0.589 3 5 cbr 500 ------- 2 1.0 5.0 5 50
- 0.589 3 5 cbr 500 ------- 2 1.0 5.0 5 50
- 0.589 2 3 cbr 500 ------- 1 0.0 4.0 51 63
+ 0.59 1 2 cbr 500 ------- 2 1.0 5.0 18 76
- 0.59 1 2 cbr 500 ------- 2 1.0 5.0 18 76
+ 0.59 0 2 cbr 500 ------- 1 0.0 4.0 58 77
- 0.59 0 2 cbr 500 ------- 1 0.0 4.0 58 77
r 0.591 2 3 cbr 500 ------- 1 0.0 4.0 45 51
+ 0.591 3 4 cbr 500 ------- 1 0.0 4.0 45 51
- 0.591 3 4 cbr 500 ------- 1 0.0 4.0 45 51
r 0.591 3 4 cbr 500 ------- 1 0.0 4.0 39 39
r 0.592 1 2 cbr 500 ------- 2 1.0 5.0 12 64
+ 0.592 2 3 cbr 500 ------- 2 1.0 5.0 12 64
- 0.592 2 3 cbr 500 ------- 2 1.0 5.0 12 64
r 0.592 0 2 cbr 500 ------- 1 0.0 4.0 52 65
+ 0.592 2 3 cbr 500 ------- 1 0.0 4.0 52 65
r 0.594 2 3 cbr 500 ------- 2 1.0 5.0 6 52
+ 0.594 3 5 cbr 500 ------- 2 1.0 5.0 6 52
- 0.594 3 5 cbr 500 ------- 2 1.0 5.0 6 52
- 0.594 2 3 cbr 500 ------- 1 0.0 4.0 52 65
+ 0.595 1 2 cbr 500 ------- 2 1.0 5.0 19 78
- 0.595 1 2 cbr 500 ------- 2 1.0 5.0 19 78
+ 0.595 0 2 cbr 500 ------- 1 0.0 4.0 59 79
- 0.595 0 2 cbr 500 ------- 1 0.0 4.0 59 79
r 0.596 3 5 cbr 500 ------- 2 1.0 5.0 0 40
r 0.596 2 3 cbr 500 ------- 1 0.0 4.0 46 53
+ 0.596 3 4 cbr 500 ------- 1 0.0 4.0 46 53
- 0.596 3 4 cbr 500 ------- 1 0.0 4.0 46 53
r 0.597 1 2 cbr 500 ------- 2 1.0 5.0 13 66
+ 0.597 2 3 cbr 500 ------- 2 1.0 5.0 13 66
- 0.597 2 3 cbr 500 ------- 2 1.0 5.0 13 66
r 0.597 0 2 cbr 500 ------- 1 0.0 4.0 53 67
+ 0.597 2 3 cbr 500 ------- 1 0.0 4.0 53 67
r 0.598 3 4 cbr 500 ------- 1 0.0 4.0 40 41
r 0.599 2 3 cbr 500 ------- 2 1.0 5.0 7 54
+ 0.599 3 5 cbr 500 ------- 2 1.0 5.0 7 54
- 0.599 3 5 cbr 500 ------- 2 1.0 5.0 7 54
- 0.599 2 3 cbr 500 ------- 1 0.0 4.0 53 67
+ 0.6 1 2 cbr 500 ------- 2 1.0 5.0 20 80
- 0.6 1 2 cbr 500 ------- 2 1.0 5.0 20 80
+ 0.6 0 2 cbr 500 ------- 1 0.0 4.0 60 81
- 0.6 0 2 cbr 500 ------- 1 0.0 4.0 60 81
r 0.601 3 5 cbr 500 ------- 2 1.0 5.0 1 42
r 0.601 2 3 cbr 500 ------- 1 0.0 4.0 47 55
+ 0.601 3 4 cbr 500 ------- 1 0.0 4.0 47 55
- 0.601 3 4 cbr 500 ------- 1 0.0 4.0 47 55
r 0.602 1 2 cbr 500 ------- 2 1.0 5.0 14 68
+ 0.602 2 3 cbr 500 ------- 2 1.0 5.0 14 68
- 0.602 2 3 cbr 500 ------- 2 1.0 5.0 14 68
r 0.602 0 2 cbr 500 ------- 1 0.0 4.0 54 69
+ 0.602 2 3 cbr 500 ------- 1 0.0 4.0 54 69
r 0.603 3 4 cbr 500 ------- 1 0.0 4.0 41 43
r 0.604 2 3 cbr 500 ------- 2 1.0 5.0 8 56
+ 0.604 3 5 cbr 500 ------- 2 1.0 5.0 8 56
- 0.604 3 5 cbr 500 ------- 2 1.0 5.0 8 56
- 0.604 2 3 cbr 500 ------- 1 0.0 4.0 54 69
+ 0.605 1 2 cbr 500 ------- 2 1.0 5.0 21 82
- 0.605 1 2 cbr 500 ------- 2 1.0 5.0 21 82
+ 0.605 0 2 cbr 500 ------- 1 0.0 4.0 61 83
- 0.605 0 2 cbr 500 ------- 1 0.0 4.0 61 83
r 0.606 3 5 cbr 500 ------- 2 1.0 5.0 2 44
r 0.606 2 3 cbr 500 ------- 1 0.0 4.0 48 57
+ 0.606 3 4 cbr 500 ------- 1 0.0 4.0 48 57
- 0.606 3 4 cbr 500 ------- 1 0.0 4.0 48 57
r 0.607 1 2 cbr 500 ------- 2 1.0 5.0 15 70
+ 0.607 2 3 cbr 500 ------- 2 1.0 5.0 15 70
- 0.607 2 3 cbr 500 ------- 2 1.0 5.0 15 70
r 0.607 0 2 cbr 500 ------- 1 0.0 4.0 55 71
+ 0.607 2 3 cbr 500 ------- 1 0.0 4.0 55 71
r 0.608 3 4 cbr 500 ------- 1 0.0 4.0 42 45
r 0.609 2 3 cbr 500 ------- 2 1.0 5.0 9 58
+ 0.609 3 5 cbr 500 ------- 2 1.0 5.0 9 58
- 0.609 3 5 cbr 500 ------- 2 1.0 5.0 9 58
- 0.609 2 3 cbr 500 ------- 1 0.0 4.0 55 71
+ 0.61 1 2 cbr 500 ------- 2 1.0 5.0 22 84
- 0.61 1 2 cbr 500 ------- 2 1.0 5.0 22 84
+ 0.61 0 2 cbr 500 ------- 1 0.0 4.0 62 85
- 0.61 0 2 cbr 500 ------- 1 0.0 4.0 62 85
r 0.611 3 5 cbr 500 ------- 2 1.0 5.0 3 46
r 0.611 2 3 cbr 500 ------- 1 0.0 4.0 49 59
+ 0.611 3 4 cbr 500 ------- 1 0.0 4.0 49 59
- 0.611 3 4 cbr 500 ------- 1 0.0 4.0 49 59
r 0.612 1 2 cbr 500 ------- 2 1.0 5.0 16 72
+ 0.612 2 3 cbr 500 ------- 2 1.0 5.0 16 72
- 0.612 2 3 cbr 500 ------- 2 1.0 5.0 16 72
r 0.612 0 2 cbr 500 ------- 1 0.0 4.0 56 73
+ 0.612 2 3 cbr 500 ------- 1 0.0 4.0 56 73
r 0.613 3 4 cbr 500 ------- 1 0.0 4.0 43 47
r 0.614 2 3 cbr 500 ------- 2 1.0 5.0 10 60
+ 0.614 3 5 cbr 500 ------- 2 1.0 5.0 10 60
- 0.614 3 5 cbr 500 ------- 2 1.0 5.0 10 60
- 0.614 2 3 cbr 500 ------- 1 0.0 4.0 56 73
+ 0.615 1 2 cbr 500 ------- 2 1.0 5.0 23 86
- 0.615 1 2 cbr 500 ------- 2 1.0 5.0 23 86
+ 0.615 0 2 cbr 500 ------- 1 0.0 4.0 63 87
- 0.615 0 2 cbr 500 ------- 1 0.0 4.0 63 87
r 0.616 3 5 cbr 500 ------- 2 1.0 5.0 4 48
r 0.616 2 3 cbr 500 ------- 1 0.0 4.0 50 61
+ 0.616 3 4 cbr 500 ------- 1 0.0 4.0 50 61
- 0.616 3 4 cbr 500 ------- 1 0.0 4.0 50 61
r 0.617 1 2 cbr 500 ------- 2 1.0 5.0 17 74
+ 0.617 2 3 cbr 500 ------- 2 1.0 5.0 17 74
- 0.617 2 3 cbr 500 ------- 2 1.0 5.0 17 74
r 0.617 0 2 cbr 500 ------- 1 0.0 4.0 57 75
+ 0.617 2 3 cbr 500 ------- 1 0.0 4.0 57 75
r 0.618 3 4 cbr 500 ------- 1 0.0 4.0 44 49
r 0.619 2 3 cbr 500 ------- 2 1.0 5.0 11 62
+ 0.619 3 5 cbr 500 ------- 2 1.0 5.0 11 62
- 0.619 3 5 cbr 500 ------- 2 1.0 5.0 11 62
- 0.619 2 3 cbr 500 ------- 1 0.0 4.0 57 75
+ 0.62 1 2 cbr 500 ------- 2 1.0 5.0 24 88
- 0.62 1 2 cbr 500 ------- 2 1.0 5.0 24 88
+ 0.62 0 2 cbr 500 ------- 1 0.0 4.0 64 89
- 0.62 0 2 cbr 500 ------- 1 0.0 4.0 64 89
r 0.621 3 5 cbr 500 ------- 2 1.0 5.0 5 50
r 0.621 2 3 cbr 500 ------- 1 0.0 4.0 51 63
+ 0.621 3 4 cbr 500 ------- 1 0.0 4.0 51 63
- 0.621 3 4 cbr 500 ------- 1 0.0 4.0 51 63
r 0.622 1 2 cbr 500 ------- 2 1.0 5.0 18 76
+ 0.622 2 3 cbr 500 ------- 2 1.0 5.0 18 76
- 0.622 2 3 cbr 500 ------- 2 1.0 5.0 18 76
r 0.622 0 2 cbr 500 ------- 1 0.0 4.0 58 77
+ 0.622 2 3 cbr 500 ------- 1 0.0 4.0 58 77
r 0.623 3 4 cbr 500 ------- 1 0.0 4.0 45 51
r 0.624 2 3 cbr 500 ------- 2 1.0 5.0 12 64
+ 0.624 3 5 cbr 500 ------- 2 1.0 5.0 12 64
- 0.624 3 5 cbr 500 ------- 2 1.0 5.0 12 64
- 0.624 2 3 cbr 500 ------- 1 0.0 4.0 58 77
+ 0.625 1 2 cbr 500 ------- 2 1.0 5.0 25 90
- 0.625 1 2 cbr 500 ------- 2 1.0 5.0 25 90
+ 0.625 0 2 cbr 500 ------- 1 0.0 4.0 65 91
- 0.625 0 2 cbr 500 ------- 1 0.0 4.0 65 91
r 0.626 3 5 cbr 500 ------- 2 1.0 5.0 6 52
r 0.626 2 3 cbr 500 ------- 1 0.0 4.0 52 65
+ 0.626 3 4 cbr 500 ------- 1 0.0 4.0 52 65
- 0.626 3 4 cbr 500 ------- 1 0.0 4.0 52 65
r 0.627 1 2 cbr 500 ------- 2 1.0 5.0 19 78
+ 0.627 2 3 cbr 500 ------- 2 1.0 5.0 19 78
- 0.627 2 3 cbr 500 ------- 2 1.0 5.0 19 78
r 0.627 0 2 cbr 500 ------- 1 0.0 4.0 59 79
+ 0.627 2 3 cbr 500 ------- 1 0.0 4.0 59 79
r 0.628 3 4 cbr 500 ------- 1 0.0 4.0 46 53
r 0.629 2 3 cbr 500 ------- 2 1.0 5.0 13 66
+ 0.629 3 5 cbr 500 ------- 2 1.0 5.0 13 66
- 0.629 3 5 cbr 500 ------- 2 1.0 5.0 13 66
- 0.629 2 3 cbr 500 ------- 1 0.0 4.0 59 79
+ 0.63 1 2 cbr 500 ------- 2 1.0 5.0 26 92
- 0.63 1 2 cbr 500 ------- 2 1.0 5.0 26 92
+ 0.63 0 2 cbr 500 ------- 1 0.0 4.0 66 93
- 0.63 0 2 cbr 500 ------- 1 0.0 4.0 66 93
r 0.631 3 5 cbr 500 ------- 2 1.0 5.0 7 54
r 0.631 2 3 cbr 500 ------- 1 0.0 4.0 53 67
+ 0.631 3 4 cbr 500 ------- 1 0.0 4.0 53 67
- 0.631 3 4 cbr 500 ------- 1 0.0 4.0 53 67
r 0.632 1 2 cbr 500 ------- 2 1.0 5.0 20 80
+ 0.632 2 3 cbr 500 ------- 2 1.0 5.0 20 80
- 0.632 2 3 cbr 500 ------- 2 1.0 5.0 20 80